
Host: DESKTOP-AT3179O

Timers On : Wed Jul 20 13:46:30 2022
Timers Off: Wed Jul 20 13:47:00 2022

Wall Time:       29.83 seconds

                                                       Time (seconds)
Module                                       User      System        Wall        Calls
DFH: sparsity prep                  :      0.000u      0.000s      0.309w     24 calls
Libint2ERI::Libint2ERI              :      0.000u      0.000s      1.040w    288 calls
DFH: initialize()                   :      0.000u      0.000s      1.714w     24 calls
DFH: AO Construction                :      0.000u      0.000s      0.227w     24 calls
DFH: AO-Met. Contraction            :      0.000u      0.000s      0.045w     24 calls
HF: Form core H                     :      0.000u      0.000s      0.174w     24 calls
HF: Form S/X                        :      0.000u      0.000s      0.019w     24 calls
HF: Guess                           :      0.000u      0.000s      2.446w     24 calls
SAD Guess                           :      0.000u      0.000s      2.390w     21 calls
HF: Form G                          :      0.000u      0.000s      0.139w    208 calls
JK: D                               :      0.000u      0.000s      0.004w    208 calls
JK: USO2AO                          :      0.000u      0.000s      0.002w    208 calls
JK: JK                              :      0.000u      0.000s      0.124w    208 calls
DFH: compute_JK()                   :      0.000u      0.000s      0.122w    208 calls
DFH: Grabbing AOs                   :      0.000u      0.000s      0.000w    208 calls
DFH: compute_J                      :      0.000u      0.000s      0.038w    208 calls
DFH: compute_K                      :      0.000u      0.000s      0.068w    208 calls
JK: AO2USO                          :      0.000u      0.000s      0.000w    208 calls
HF: Form F                          :      0.000u      0.000s      0.005w    208 calls
HF: Form D                          :      0.000u      0.000s      0.003w    208 calls
HF: DIIS                            :      0.000u      0.000s      0.628w    187 calls
DIISManager::add_entry              :      0.000u      0.000s      0.091w    184 calls
DIISManager::extrapolate            :      0.000u      0.000s      0.046w    184 calls
bMatrix setup                       :      0.000u      0.000s      0.020w    184 calls
bMatrix pseudoinverse               :      0.000u      0.000s      0.012w    184 calls
New vector                          :      0.000u      0.000s      0.012w    184 calls
HF: Form C                          :      0.000u      0.000s      0.244w    187 calls
Grad: V T Perturb                   :      0.000u      0.000s      2.095w     24 calls
Grad: S                             :      0.000u      0.000s      0.006w     24 calls
Grad: JK                            :      0.000u      0.000s      2.504w     24 calls
JKGrad: Amn                         :      0.000u      0.000s      0.676w     24 calls
JKGrad: Awmn                        :      0.000u      0.000s      0.000w     24 calls
JKGrad: AB                          :      0.000u      0.000s      0.337w     24 calls
JKGrad: UV                          :      0.000u      0.000s      0.011w     24 calls
JKGrad: ABx                         :      0.000u      0.000s      0.144w     24 calls
JKGrad: Amnx                        :      0.000u      0.000s      1.148w     24 calls
Grad: XC                            :      0.000u      0.000s      0.000w     24 calls

--------------------------------------------------------------------------------------
DFH: sparsity prep                  :      0.000u      0.000s      0.309w     24 calls
| Libint2ERI::Libint2ERI            :      0.000u      0.000s      0.228w     24 calls
DFH: initialize()                   :      0.000u      0.000s      1.714w     24 calls
| Libint2ERI::Libint2ERI            :      0.000u      0.000s      0.145w     72 calls
| DFH: AO Construction              :      0.000u      0.000s      0.227w     24 calls
| DFH: AO-Met. Contraction          :      0.000u      0.000s      0.045w     24 calls
HF: Form core H                     :      0.000u      0.000s      0.174w     24 calls
HF: Form S/X                        :      0.000u      0.000s      0.019w     24 calls
HF: Guess                           :      0.000u      0.000s      2.446w     24 calls
| SAD Guess                         :      0.000u      0.000s      2.390w     21 calls
HF: Form G                          :      0.000u      0.000s      0.139w    208 calls
| JK: D                             :      0.000u      0.000s      0.004w    208 calls
| JK: USO2AO                        :      0.000u      0.000s      0.002w    208 calls
| JK: JK                            :      0.000u      0.000s      0.124w    208 calls
| | DFH: compute_JK()               :      0.000u      0.000s      0.122w    208 calls
| | | DFH: Grabbing AOs             :      0.000u      0.000s      0.000w    208 calls
| | | DFH: compute_J                :      0.000u      0.000s      0.038w    208 calls
| | | DFH: compute_K                :      0.000u      0.000s      0.068w    208 calls
| JK: AO2USO                        :      0.000u      0.000s      0.000w    208 calls
HF: Form F                          :      0.000u      0.000s      0.005w    208 calls
HF: Form D                          :      0.000u      0.000s      0.003w    208 calls
HF: DIIS                            :      0.000u      0.000s      0.628w    187 calls
| DIISManager::add_entry            :      0.000u      0.000s      0.091w    184 calls
| DIISManager::extrapolate          :      0.000u      0.000s      0.046w    184 calls
| | bMatrix setup                   :      0.000u      0.000s      0.020w    184 calls
| | bMatrix pseudoinverse           :      0.000u      0.000s      0.012w    184 calls
| | New vector                      :      0.000u      0.000s      0.012w    184 calls
HF: Form C                          :      0.000u      0.000s      0.244w    187 calls
Grad: V T Perturb                   :      0.000u      0.000s      2.095w     24 calls
Grad: S                             :      0.000u      0.000s      0.006w     24 calls
Grad: JK                            :      0.000u      0.000s      2.504w     24 calls
| JKGrad: Amn                       :      0.000u      0.000s      0.676w     24 calls
| | Libint2ERI::Libint2ERI          :      0.000u      0.000s      0.310w     48 calls
| JKGrad: Awmn                      :      0.000u      0.000s      0.000w     24 calls
| JKGrad: AB                        :      0.000u      0.000s      0.337w     24 calls
| | Libint2ERI::Libint2ERI          :      0.000u      0.000s      0.005w     48 calls
| JKGrad: UV                        :      0.000u      0.000s      0.011w     24 calls
| JKGrad: ABx                       :      0.000u      0.000s      0.144w     24 calls
| | Libint2ERI::Libint2ERI          :      0.000u      0.000s      0.005w     48 calls
| JKGrad: Amnx                      :      0.000u      0.000s      1.148w     24 calls
| | Libint2ERI::Libint2ERI          :      0.000u      0.000s      0.348w     48 calls
Grad: XC                            :      0.000u      0.000s      0.000w     24 calls

**************************************************************************************

Host: DESKTOP-AT3179O

Timers On : Wed Jul 20 13:55:04 2022
Timers Off: Wed Jul 20 13:55:23 2022

Wall Time:       18.43 seconds

                                                       Time (seconds)
Module                                       User      System        Wall        Calls
DFH: sparsity prep                  :      0.000u      0.000s      0.171w     24 calls
Libint2ERI::Libint2ERI              :      0.000u      0.000s      0.612w    288 calls
DFH: initialize()                   :      0.000u      0.000s      1.358w     24 calls
DFH: AO Construction                :      0.000u      0.000s      0.155w     24 calls
DFH: AO-Met. Contraction            :      0.000u      0.000s      0.033w     24 calls
HF: Form core H                     :      0.000u      0.000s      0.125w     24 calls
HF: Form S/X                        :      0.000u      0.000s      0.013w     24 calls
HF: Guess                           :      0.000u      0.000s      1.865w     24 calls
SAD Guess                           :      0.000u      0.000s      1.819w     21 calls
HF: Form G                          :      0.000u      0.000s      0.083w    208 calls
JK: D                               :      0.000u      0.000s      0.002w    208 calls
JK: USO2AO                          :      0.000u      0.000s      0.001w    208 calls
JK: JK                              :      0.000u      0.000s      0.074w    208 calls
DFH: compute_JK()                   :      0.000u      0.000s      0.073w    208 calls
DFH: Grabbing AOs                   :      0.000u      0.000s      0.000w    208 calls
DFH: compute_J                      :      0.000u      0.000s      0.023w    208 calls
DFH: compute_K                      :      0.000u      0.000s      0.040w    208 calls
JK: AO2USO                          :      0.000u      0.000s      0.000w    208 calls
HF: Form F                          :      0.000u      0.000s      0.003w    208 calls
HF: Form D                          :      0.000u      0.000s      0.001w    208 calls
HF: DIIS                            :      0.000u      0.000s      0.361w    187 calls
DIISManager::add_entry              :      0.000u      0.000s      0.064w    184 calls
DIISManager::extrapolate            :      0.000u      0.000s      0.026w    184 calls
bMatrix setup                       :      0.000u      0.000s      0.011w    184 calls
bMatrix pseudoinverse               :      0.000u      0.000s      0.007w    184 calls
New vector                          :      0.000u      0.000s      0.007w    184 calls
HF: Form C                          :      0.000u      0.000s      0.137w    187 calls
Grad: V T Perturb                   :      0.000u      0.000s      1.291w     24 calls
Grad: S                             :      0.000u      0.000s      0.005w     24 calls
Grad: JK                            :      0.000u      0.000s      1.500w     24 calls
JKGrad: Amn                         :      0.000u      0.000s      0.426w     24 calls
JKGrad: Awmn                        :      0.000u      0.000s      0.000w     24 calls
JKGrad: AB                          :      0.000u      0.000s      0.214w     24 calls
JKGrad: UV                          :      0.000u      0.000s      0.007w     24 calls
JKGrad: ABx                         :      0.000u      0.000s      0.087w     24 calls
JKGrad: Amnx                        :      0.000u      0.000s      0.636w     24 calls
Grad: XC                            :      0.000u      0.000s      0.000w     24 calls

--------------------------------------------------------------------------------------
DFH: sparsity prep                  :      0.000u      0.000s      0.171w     24 calls
| Libint2ERI::Libint2ERI            :      0.000u      0.000s      0.115w     24 calls
DFH: initialize()                   :      0.000u      0.000s      1.358w     24 calls
| Libint2ERI::Libint2ERI            :      0.000u      0.000s      0.098w     72 calls
| DFH: AO Construction              :      0.000u      0.000s      0.155w     24 calls
| DFH: AO-Met. Contraction          :      0.000u      0.000s      0.033w     24 calls
HF: Form core H                     :      0.000u      0.000s      0.125w     24 calls
HF: Form S/X                        :      0.000u      0.000s      0.013w     24 calls
HF: Guess                           :      0.000u      0.000s      1.865w     24 calls
| SAD Guess                         :      0.000u      0.000s      1.819w     21 calls
HF: Form G                          :      0.000u      0.000s      0.083w    208 calls
| JK: D                             :      0.000u      0.000s      0.002w    208 calls
| JK: USO2AO                        :      0.000u      0.000s      0.001w    208 calls
| JK: JK                            :      0.000u      0.000s      0.074w    208 calls
| | DFH: compute_JK()               :      0.000u      0.000s      0.073w    208 calls
| | | DFH: Grabbing AOs             :      0.000u      0.000s      0.000w    208 calls
| | | DFH: compute_J                :      0.000u      0.000s      0.023w    208 calls
| | | DFH: compute_K                :      0.000u      0.000s      0.040w    208 calls
| JK: AO2USO                        :      0.000u      0.000s      0.000w    208 calls
HF: Form F                          :      0.000u      0.000s      0.003w    208 calls
HF: Form D                          :      0.000u      0.000s      0.001w    208 calls
HF: DIIS                            :      0.000u      0.000s      0.361w    187 calls
| DIISManager::add_entry            :      0.000u      0.000s      0.064w    184 calls
| DIISManager::extrapolate          :      0.000u      0.000s      0.026w    184 calls
| | bMatrix setup                   :      0.000u      0.000s      0.011w    184 calls
| | bMatrix pseudoinverse           :      0.000u      0.000s      0.007w    184 calls
| | New vector                      :      0.000u      0.000s      0.007w    184 calls
HF: Form C                          :      0.000u      0.000s      0.137w    187 calls
Grad: V T Perturb                   :      0.000u      0.000s      1.291w     24 calls
Grad: S                             :      0.000u      0.000s      0.005w     24 calls
Grad: JK                            :      0.000u      0.000s      1.500w     24 calls
| JKGrad: Amn                       :      0.000u      0.000s      0.426w     24 calls
| | Libint2ERI::Libint2ERI          :      0.000u      0.000s      0.194w     48 calls
| JKGrad: Awmn                      :      0.000u      0.000s      0.000w     24 calls
| JKGrad: AB                        :      0.000u      0.000s      0.214w     24 calls
| | Libint2ERI::Libint2ERI          :      0.000u      0.000s      0.003w     48 calls
| JKGrad: UV                        :      0.000u      0.000s      0.007w     24 calls
| JKGrad: ABx                       :      0.000u      0.000s      0.087w     24 calls
| | Libint2ERI::Libint2ERI          :      0.000u      0.000s      0.003w     48 calls
| JKGrad: Amnx                      :      0.000u      0.000s      0.636w     24 calls
| | Libint2ERI::Libint2ERI          :      0.000u      0.000s      0.198w     48 calls
Grad: XC                            :      0.000u      0.000s      0.000w     24 calls

**************************************************************************************

Host: DESKTOP-AT3179O

Timers On : Wed Jul 20 13:56:47 2022
Timers Off: Wed Jul 20 13:57:06 2022

Wall Time:       18.58 seconds

                                                       Time (seconds)
Module                                       User      System        Wall        Calls
DFH: sparsity prep                  :      0.000u      0.000s      0.157w     24 calls
Libint2ERI::Libint2ERI              :      0.000u      0.000s      0.602w    288 calls
DFH: initialize()                   :      0.000u      0.000s      1.307w     24 calls
DFH: AO Construction                :      0.000u      0.000s      0.172w     24 calls
DFH: AO-Met. Contraction            :      0.000u      0.000s      0.036w     24 calls
HF: Form core H                     :      0.000u      0.000s      0.130w     24 calls
HF: Form S/X                        :      0.000u      0.000s      0.012w     24 calls
HF: Guess                           :      0.000u      0.000s      1.860w     24 calls
SAD Guess                           :      0.000u      0.000s      1.823w     21 calls
HF: Form G                          :      0.000u      0.000s      0.085w    208 calls
JK: D                               :      0.000u      0.000s      0.002w    208 calls
JK: USO2AO                          :      0.000u      0.000s      0.001w    208 calls
JK: JK                              :      0.000u      0.000s      0.076w    208 calls
DFH: compute_JK()                   :      0.000u      0.000s      0.075w    208 calls
DFH: Grabbing AOs                   :      0.000u      0.000s      0.000w    208 calls
DFH: compute_J                      :      0.000u      0.000s      0.024w    208 calls
DFH: compute_K                      :      0.000u      0.000s      0.040w    208 calls
JK: AO2USO                          :      0.000u      0.000s      0.000w    208 calls
HF: Form F                          :      0.000u      0.000s      0.003w    208 calls
HF: Form D                          :      0.000u      0.000s      0.001w    208 calls
HF: DIIS                            :      0.000u      0.000s      0.370w    187 calls
DIISManager::add_entry              :      0.000u      0.000s      0.059w    184 calls
DIISManager::extrapolate            :      0.000u      0.000s      0.028w    184 calls
bMatrix setup                       :      0.000u      0.000s      0.012w    184 calls
bMatrix pseudoinverse               :      0.000u      0.000s      0.009w    184 calls
New vector                          :      0.000u      0.000s      0.007w    184 calls
HF: Form C                          :      0.000u      0.000s      0.145w    187 calls
Grad: V T Perturb                   :      0.000u      0.000s      1.359w     24 calls
Grad: S                             :      0.000u      0.000s      0.004w     24 calls
Grad: JK                            :      0.000u      0.000s      1.492w     24 calls
JKGrad: Amn                         :      0.000u      0.000s      0.426w     24 calls
JKGrad: Awmn                        :      0.000u      0.000s      0.000w     24 calls
JKGrad: AB                          :      0.000u      0.000s      0.198w     24 calls
JKGrad: UV                          :      0.000u      0.000s      0.007w     24 calls
JKGrad: ABx                         :      0.000u      0.000s      0.078w     24 calls
JKGrad: Amnx                        :      0.000u      0.000s      0.660w     24 calls
Grad: XC                            :      0.000u      0.000s      0.000w     24 calls

--------------------------------------------------------------------------------------
DFH: sparsity prep                  :      0.000u      0.000s      0.157w     24 calls
| Libint2ERI::Libint2ERI            :      0.000u      0.000s      0.107w     24 calls
DFH: initialize()                   :      0.000u      0.000s      1.307w     24 calls
| Libint2ERI::Libint2ERI            :      0.000u      0.000s      0.099w     72 calls
| DFH: AO Construction              :      0.000u      0.000s      0.172w     24 calls
| DFH: AO-Met. Contraction          :      0.000u      0.000s      0.036w     24 calls
HF: Form core H                     :      0.000u      0.000s      0.130w     24 calls
HF: Form S/X                        :      0.000u      0.000s      0.012w     24 calls
HF: Guess                           :      0.000u      0.000s      1.860w     24 calls
| SAD Guess                         :      0.000u      0.000s      1.823w     21 calls
HF: Form G                          :      0.000u      0.000s      0.085w    208 calls
| JK: D                             :      0.000u      0.000s      0.002w    208 calls
| JK: USO2AO                        :      0.000u      0.000s      0.001w    208 calls
| JK: JK                            :      0.000u      0.000s      0.076w    208 calls
| | DFH: compute_JK()               :      0.000u      0.000s      0.075w    208 calls
| | | DFH: Grabbing AOs             :      0.000u      0.000s      0.000w    208 calls
| | | DFH: compute_J                :      0.000u      0.000s      0.024w    208 calls
| | | DFH: compute_K                :      0.000u      0.000s      0.040w    208 calls
| JK: AO2USO                        :      0.000u      0.000s      0.000w    208 calls
HF: Form F                          :      0.000u      0.000s      0.003w    208 calls
HF: Form D                          :      0.000u      0.000s      0.001w    208 calls
HF: DIIS                            :      0.000u      0.000s      0.370w    187 calls
| DIISManager::add_entry            :      0.000u      0.000s      0.059w    184 calls
| DIISManager::extrapolate          :      0.000u      0.000s      0.028w    184 calls
| | bMatrix setup                   :      0.000u      0.000s      0.012w    184 calls
| | bMatrix pseudoinverse           :      0.000u      0.000s      0.009w    184 calls
| | New vector                      :      0.000u      0.000s      0.007w    184 calls
HF: Form C                          :      0.000u      0.000s      0.145w    187 calls
Grad: V T Perturb                   :      0.000u      0.000s      1.359w     24 calls
Grad: S                             :      0.000u      0.000s      0.004w     24 calls
Grad: JK                            :      0.000u      0.000s      1.492w     24 calls
| JKGrad: Amn                       :      0.000u      0.000s      0.426w     24 calls
| | Libint2ERI::Libint2ERI          :      0.000u      0.000s      0.192w     48 calls
| JKGrad: Awmn                      :      0.000u      0.000s      0.000w     24 calls
| JKGrad: AB                        :      0.000u      0.000s      0.198w     24 calls
| | Libint2ERI::Libint2ERI          :      0.000u      0.000s      0.003w     48 calls
| JKGrad: UV                        :      0.000u      0.000s      0.007w     24 calls
| JKGrad: ABx                       :      0.000u      0.000s      0.078w     24 calls
| | Libint2ERI::Libint2ERI          :      0.000u      0.000s      0.003w     48 calls
| JKGrad: Amnx                      :      0.000u      0.000s      0.660w     24 calls
| | Libint2ERI::Libint2ERI          :      0.000u      0.000s      0.199w     48 calls
Grad: XC                            :      0.000u      0.000s      0.000w     24 calls

**************************************************************************************

Host: DESKTOP-AT3179O

Timers On : Wed Jul 20 14:03:59 2022
Timers Off: Wed Jul 20 14:04:18 2022

Wall Time:       18.71 seconds

                                                       Time (seconds)
Module                                       User      System        Wall        Calls
DFH: sparsity prep                  :      0.000u      0.000s      0.160w     24 calls
Libint2ERI::Libint2ERI              :      0.000u      0.000s      0.601w    288 calls
DFH: initialize()                   :      0.000u      0.000s      1.346w     24 calls
DFH: AO Construction                :      0.000u      0.000s      0.167w     24 calls
DFH: AO-Met. Contraction            :      0.000u      0.000s      0.033w     24 calls
HF: Form core H                     :      0.000u      0.000s      0.120w     24 calls
HF: Form S/X                        :      0.000u      0.000s      0.012w     24 calls
HF: Guess                           :      0.000u      0.000s      1.726w     24 calls
SAD Guess                           :      0.000u      0.000s      1.690w     21 calls
HF: Form G                          :      0.000u      0.000s      0.086w    208 calls
JK: D                               :      0.000u      0.000s      0.002w    208 calls
JK: USO2AO                          :      0.000u      0.000s      0.001w    208 calls
JK: JK                              :      0.000u      0.000s      0.077w    208 calls
DFH: compute_JK()                   :      0.000u      0.000s      0.077w    208 calls
DFH: Grabbing AOs                   :      0.000u      0.000s      0.000w    208 calls
DFH: compute_J                      :      0.000u      0.000s      0.024w    208 calls
DFH: compute_K                      :      0.000u      0.000s      0.040w    208 calls
JK: AO2USO                          :      0.000u      0.000s      0.000w    208 calls
HF: Form F                          :      0.000u      0.000s      0.003w    208 calls
HF: Form D                          :      0.000u      0.000s      0.002w    208 calls
HF: DIIS                            :      0.000u      0.000s      0.386w    187 calls
DIISManager::add_entry              :      0.000u      0.000s      0.067w    184 calls
DIISManager::extrapolate            :      0.000u      0.000s      0.028w    184 calls
bMatrix setup                       :      0.000u      0.000s      0.012w    184 calls
bMatrix pseudoinverse               :      0.000u      0.000s      0.008w    184 calls
New vector                          :      0.000u      0.000s      0.007w    184 calls
HF: Form C                          :      0.000u      0.000s      0.147w    187 calls
Grad: V T Perturb                   :      0.000u      0.000s      1.380w     24 calls
Grad: S                             :      0.000u      0.000s      0.004w     24 calls
Grad: JK                            :      0.000u      0.000s      1.478w     24 calls
JKGrad: Amn                         :      0.000u      0.000s      0.420w     24 calls
JKGrad: Awmn                        :      0.000u      0.000s      0.000w     24 calls
JKGrad: AB                          :      0.000u      0.000s      0.211w     24 calls
JKGrad: UV                          :      0.000u      0.000s      0.007w     24 calls
JKGrad: ABx                         :      0.000u      0.000s      0.083w     24 calls
JKGrad: Amnx                        :      0.000u      0.000s      0.636w     24 calls
Grad: XC                            :      0.000u      0.000s      0.000w     24 calls

--------------------------------------------------------------------------------------
DFH: sparsity prep                  :      0.000u      0.000s      0.160w     24 calls
| Libint2ERI::Libint2ERI            :      0.000u      0.000s      0.111w     24 calls
DFH: initialize()                   :      0.000u      0.000s      1.346w     24 calls
| Libint2ERI::Libint2ERI            :      0.000u      0.000s      0.094w     72 calls
| DFH: AO Construction              :      0.000u      0.000s      0.167w     24 calls
| DFH: AO-Met. Contraction          :      0.000u      0.000s      0.033w     24 calls
HF: Form core H                     :      0.000u      0.000s      0.120w     24 calls
HF: Form S/X                        :      0.000u      0.000s      0.012w     24 calls
HF: Guess                           :      0.000u      0.000s      1.726w     24 calls
| SAD Guess                         :      0.000u      0.000s      1.690w     21 calls
HF: Form G                          :      0.000u      0.000s      0.086w    208 calls
| JK: D                             :      0.000u      0.000s      0.002w    208 calls
| JK: USO2AO                        :      0.000u      0.000s      0.001w    208 calls
| JK: JK                            :      0.000u      0.000s      0.077w    208 calls
| | DFH: compute_JK()               :      0.000u      0.000s      0.077w    208 calls
| | | DFH: Grabbing AOs             :      0.000u      0.000s      0.000w    208 calls
| | | DFH: compute_J                :      0.000u      0.000s      0.024w    208 calls
| | | DFH: compute_K                :      0.000u      0.000s      0.040w    208 calls
| JK: AO2USO                        :      0.000u      0.000s      0.000w    208 calls
HF: Form F                          :      0.000u      0.000s      0.003w    208 calls
HF: Form D                          :      0.000u      0.000s      0.002w    208 calls
HF: DIIS                            :      0.000u      0.000s      0.386w    187 calls
| DIISManager::add_entry            :      0.000u      0.000s      0.067w    184 calls
| DIISManager::extrapolate          :      0.000u      0.000s      0.028w    184 calls
| | bMatrix setup                   :      0.000u      0.000s      0.012w    184 calls
| | bMatrix pseudoinverse           :      0.000u      0.000s      0.008w    184 calls
| | New vector                      :      0.000u      0.000s      0.007w    184 calls
HF: Form C                          :      0.000u      0.000s      0.147w    187 calls
Grad: V T Perturb                   :      0.000u      0.000s      1.380w     24 calls
Grad: S                             :      0.000u      0.000s      0.004w     24 calls
Grad: JK                            :      0.000u      0.000s      1.478w     24 calls
| JKGrad: Amn                       :      0.000u      0.000s      0.420w     24 calls
| | Libint2ERI::Libint2ERI          :      0.000u      0.000s      0.190w     48 calls
| JKGrad: Awmn                      :      0.000u      0.000s      0.000w     24 calls
| JKGrad: AB                        :      0.000u      0.000s      0.211w     24 calls
| | Libint2ERI::Libint2ERI          :      0.000u      0.000s      0.004w     48 calls
| JKGrad: UV                        :      0.000u      0.000s      0.007w     24 calls
| JKGrad: ABx                       :      0.000u      0.000s      0.083w     24 calls
| | Libint2ERI::Libint2ERI          :      0.000u      0.000s      0.003w     48 calls
| JKGrad: Amnx                      :      0.000u      0.000s      0.636w     24 calls
| | Libint2ERI::Libint2ERI          :      0.000u      0.000s      0.200w     48 calls
Grad: XC                            :      0.000u      0.000s      0.000w     24 calls

**************************************************************************************

Host: DESKTOP-AT3179O

Timers On : Wed Jul 20 14:05:00 2022
Timers Off: Wed Jul 20 14:05:18 2022

Wall Time:       18.41 seconds

                                                       Time (seconds)
Module                                       User      System        Wall        Calls
DFH: sparsity prep                  :      0.000u      0.000s      0.164w     24 calls
Libint2ERI::Libint2ERI              :      0.000u      0.000s      0.619w    288 calls
DFH: initialize()                   :      0.000u      0.000s      1.293w     24 calls
DFH: AO Construction                :      0.000u      0.000s      0.161w     24 calls
DFH: AO-Met. Contraction            :      0.000u      0.000s      0.033w     24 calls
HF: Form core H                     :      0.000u      0.000s      0.122w     24 calls
HF: Form S/X                        :      0.000u      0.000s      0.012w     24 calls
HF: Guess                           :      0.000u      0.000s      1.883w     24 calls
SAD Guess                           :      0.000u      0.000s      1.847w     21 calls
HF: Form G                          :      0.000u      0.000s      0.084w    208 calls
JK: D                               :      0.000u      0.000s      0.002w    208 calls
JK: USO2AO                          :      0.000u      0.000s      0.001w    208 calls
JK: JK                              :      0.000u      0.000s      0.076w    208 calls
DFH: compute_JK()                   :      0.000u      0.000s      0.075w    208 calls
DFH: Grabbing AOs                   :      0.000u      0.000s      0.000w    208 calls
DFH: compute_J                      :      0.000u      0.000s      0.024w    208 calls
DFH: compute_K                      :      0.000u      0.000s      0.040w    208 calls
JK: AO2USO                          :      0.000u      0.000s      0.000w    208 calls
HF: Form F                          :      0.000u      0.000s      0.003w    208 calls
HF: Form D                          :      0.000u      0.000s      0.001w    208 calls
HF: DIIS                            :      0.000u      0.000s      0.359w    187 calls
DIISManager::add_entry              :      0.000u      0.000s      0.061w    184 calls
DIISManager::extrapolate            :      0.000u      0.000s      0.027w    184 calls
bMatrix setup                       :      0.000u      0.000s      0.012w    184 calls
bMatrix pseudoinverse               :      0.000u      0.000s      0.008w    184 calls
New vector                          :      0.000u      0.000s      0.006w    184 calls
HF: Form C                          :      0.000u      0.000s      0.133w    187 calls
Grad: V T Perturb                   :      0.000u      0.000s      1.318w     24 calls
Grad: S                             :      0.000u      0.000s      0.005w     24 calls
Grad: JK                            :      0.000u      0.000s      1.544w     24 calls
JKGrad: Amn                         :      0.000u      0.000s      0.448w     24 calls
JKGrad: Awmn                        :      0.000u      0.000s      0.000w     24 calls
JKGrad: AB                          :      0.000u      0.000s      0.218w     24 calls
JKGrad: UV                          :      0.000u      0.000s      0.007w     24 calls
JKGrad: ABx                         :      0.000u      0.000s      0.084w     24 calls
JKGrad: Amnx                        :      0.000u      0.000s      0.665w     24 calls
Grad: XC                            :      0.000u      0.000s      0.000w     24 calls

--------------------------------------------------------------------------------------
DFH: sparsity prep                  :      0.000u      0.000s      0.164w     24 calls
| Libint2ERI::Libint2ERI            :      0.000u      0.000s      0.112w     24 calls
DFH: initialize()                   :      0.000u      0.000s      1.293w     24 calls
| Libint2ERI::Libint2ERI            :      0.000u      0.000s      0.090w     72 calls
| DFH: AO Construction              :      0.000u      0.000s      0.161w     24 calls
| DFH: AO-Met. Contraction          :      0.000u      0.000s      0.033w     24 calls
HF: Form core H                     :      0.000u      0.000s      0.122w     24 calls
HF: Form S/X                        :      0.000u      0.000s      0.012w     24 calls
HF: Guess                           :      0.000u      0.000s      1.883w     24 calls
| SAD Guess                         :      0.000u      0.000s      1.847w     21 calls
HF: Form G                          :      0.000u      0.000s      0.084w    208 calls
| JK: D                             :      0.000u      0.000s      0.002w    208 calls
| JK: USO2AO                        :      0.000u      0.000s      0.001w    208 calls
| JK: JK                            :      0.000u      0.000s      0.076w    208 calls
| | DFH: compute_JK()               :      0.000u      0.000s      0.075w    208 calls
| | | DFH: Grabbing AOs             :      0.000u      0.000s      0.000w    208 calls
| | | DFH: compute_J                :      0.000u      0.000s      0.024w    208 calls
| | | DFH: compute_K                :      0.000u      0.000s      0.040w    208 calls
| JK: AO2USO                        :      0.000u      0.000s      0.000w    208 calls
HF: Form F                          :      0.000u      0.000s      0.003w    208 calls
HF: Form D                          :      0.000u      0.000s      0.001w    208 calls
HF: DIIS                            :      0.000u      0.000s      0.359w    187 calls
| DIISManager::add_entry            :      0.000u      0.000s      0.061w    184 calls
| DIISManager::extrapolate          :      0.000u      0.000s      0.027w    184 calls
| | bMatrix setup                   :      0.000u      0.000s      0.012w    184 calls
| | bMatrix pseudoinverse           :      0.000u      0.000s      0.008w    184 calls
| | New vector                      :      0.000u      0.000s      0.006w    184 calls
HF: Form C                          :      0.000u      0.000s      0.133w    187 calls
Grad: V T Perturb                   :      0.000u      0.000s      1.318w     24 calls
Grad: S                             :      0.000u      0.000s      0.005w     24 calls
Grad: JK                            :      0.000u      0.000s      1.544w     24 calls
| JKGrad: Amn                       :      0.000u      0.000s      0.448w     24 calls
| | Libint2ERI::Libint2ERI          :      0.000u      0.000s      0.205w     48 calls
| JKGrad: Awmn                      :      0.000u      0.000s      0.000w     24 calls
| JKGrad: AB                        :      0.000u      0.000s      0.218w     24 calls
| | Libint2ERI::Libint2ERI          :      0.000u      0.000s      0.003w     48 calls
| JKGrad: UV                        :      0.000u      0.000s      0.007w     24 calls
| JKGrad: ABx                       :      0.000u      0.000s      0.084w     24 calls
| | Libint2ERI::Libint2ERI          :      0.000u      0.000s      0.003w     48 calls
| JKGrad: Amnx                      :      0.000u      0.000s      0.665w     24 calls
| | Libint2ERI::Libint2ERI          :      0.000u      0.000s      0.206w     48 calls
Grad: XC                            :      0.000u      0.000s      0.000w     24 calls

**************************************************************************************

Host: DESKTOP-AT3179O

Timers On : Wed Jul 20 14:06:00 2022
Timers Off: Wed Jul 20 14:06:19 2022

Wall Time:       19.41 seconds

                                                       Time (seconds)
Module                                       User      System        Wall        Calls
DFH: sparsity prep                  :      0.000u      0.000s      0.168w     24 calls
Libint2ERI::Libint2ERI              :      0.000u      0.000s      0.634w    288 calls
DFH: initialize()                   :      0.000u      0.000s      1.342w     24 calls
DFH: AO Construction                :      0.000u      0.000s      0.163w     24 calls
DFH: AO-Met. Contraction            :      0.000u      0.000s      0.034w     24 calls
HF: Form core H                     :      0.000u      0.000s      0.155w     24 calls
HF: Form S/X                        :      0.000u      0.000s      0.012w     24 calls
HF: Guess                           :      0.000u      0.000s      1.831w     24 calls
SAD Guess                           :      0.000u      0.000s      1.797w     21 calls
HF: Form G                          :      0.000u      0.000s      0.086w    208 calls
JK: D                               :      0.000u      0.000s      0.002w    208 calls
JK: USO2AO                          :      0.000u      0.000s      0.001w    208 calls
JK: JK                              :      0.000u      0.000s      0.077w    208 calls
DFH: compute_JK()                   :      0.000u      0.000s      0.076w    208 calls
DFH: Grabbing AOs                   :      0.000u      0.000s      0.000w    208 calls
DFH: compute_J                      :      0.000u      0.000s      0.024w    208 calls
DFH: compute_K                      :      0.000u      0.000s      0.040w    208 calls
JK: AO2USO                          :      0.000u      0.000s      0.000w    208 calls
HF: Form F                          :      0.000u      0.000s      0.003w    208 calls
HF: Form D                          :      0.000u      0.000s      0.002w    208 calls
HF: DIIS                            :      0.000u      0.000s      0.628w    187 calls
DIISManager::add_entry              :      0.000u      0.000s      0.311w    184 calls
DIISManager::extrapolate            :      0.000u      0.000s      0.027w    184 calls
bMatrix setup                       :      0.000u      0.000s      0.011w    184 calls
bMatrix pseudoinverse               :      0.000u      0.000s      0.008w    184 calls
New vector                          :      0.000u      0.000s      0.007w    184 calls
HF: Form C                          :      0.000u      0.000s      0.142w    187 calls
Grad: V T Perturb                   :      0.000u      0.000s      1.395w     24 calls
Grad: S                             :      0.000u      0.000s      0.005w     24 calls
Grad: JK                            :      0.000u      0.000s      1.617w     24 calls
JKGrad: Amn                         :      0.000u      0.000s      0.569w     24 calls
JKGrad: Awmn                        :      0.000u      0.000s      0.000w     24 calls
JKGrad: AB                          :      0.000u      0.000s      0.212w     24 calls
JKGrad: UV                          :      0.000u      0.000s      0.007w     24 calls
JKGrad: ABx                         :      0.000u      0.000s      0.085w     24 calls
JKGrad: Amnx                        :      0.000u      0.000s      0.617w     24 calls
Grad: XC                            :      0.000u      0.000s      0.000w     24 calls

--------------------------------------------------------------------------------------
DFH: sparsity prep                  :      0.000u      0.000s      0.168w     24 calls
| Libint2ERI::Libint2ERI            :      0.000u      0.000s      0.113w     24 calls
DFH: initialize()                   :      0.000u      0.000s      1.342w     24 calls
| Libint2ERI::Libint2ERI            :      0.000u      0.000s      0.097w     72 calls
| DFH: AO Construction              :      0.000u      0.000s      0.163w     24 calls
| DFH: AO-Met. Contraction          :      0.000u      0.000s      0.034w     24 calls
HF: Form core H                     :      0.000u      0.000s      0.155w     24 calls
HF: Form S/X                        :      0.000u      0.000s      0.012w     24 calls
HF: Guess                           :      0.000u      0.000s      1.831w     24 calls
| SAD Guess                         :      0.000u      0.000s      1.797w     21 calls
HF: Form G                          :      0.000u      0.000s      0.086w    208 calls
| JK: D                             :      0.000u      0.000s      0.002w    208 calls
| JK: USO2AO                        :      0.000u      0.000s      0.001w    208 calls
| JK: JK                            :      0.000u      0.000s      0.077w    208 calls
| | DFH: compute_JK()               :      0.000u      0.000s      0.076w    208 calls
| | | DFH: Grabbing AOs             :      0.000u      0.000s      0.000w    208 calls
| | | DFH: compute_J                :      0.000u      0.000s      0.024w    208 calls
| | | DFH: compute_K                :      0.000u      0.000s      0.040w    208 calls
| JK: AO2USO                        :      0.000u      0.000s      0.000w    208 calls
HF: Form F                          :      0.000u      0.000s      0.003w    208 calls
HF: Form D                          :      0.000u      0.000s      0.002w    208 calls
HF: DIIS                            :      0.000u      0.000s      0.628w    187 calls
| DIISManager::add_entry            :      0.000u      0.000s      0.311w    184 calls
| DIISManager::extrapolate          :      0.000u      0.000s      0.027w    184 calls
| | bMatrix setup                   :      0.000u      0.000s      0.011w    184 calls
| | bMatrix pseudoinverse           :      0.000u      0.000s      0.008w    184 calls
| | New vector                      :      0.000u      0.000s      0.007w    184 calls
HF: Form C                          :      0.000u      0.000s      0.142w    187 calls
Grad: V T Perturb                   :      0.000u      0.000s      1.395w     24 calls
Grad: S                             :      0.000u      0.000s      0.005w     24 calls
Grad: JK                            :      0.000u      0.000s      1.617w     24 calls
| JKGrad: Amn                       :      0.000u      0.000s      0.569w     24 calls
| | Libint2ERI::Libint2ERI          :      0.000u      0.000s      0.218w     48 calls
| JKGrad: Awmn                      :      0.000u      0.000s      0.000w     24 calls
| JKGrad: AB                        :      0.000u      0.000s      0.212w     24 calls
| | Libint2ERI::Libint2ERI          :      0.000u      0.000s      0.003w     48 calls
| JKGrad: UV                        :      0.000u      0.000s      0.007w     24 calls
| JKGrad: ABx                       :      0.000u      0.000s      0.085w     24 calls
| | Libint2ERI::Libint2ERI          :      0.000u      0.000s      0.003w     48 calls
| JKGrad: Amnx                      :      0.000u      0.000s      0.617w     24 calls
| | Libint2ERI::Libint2ERI          :      0.000u      0.000s      0.200w     48 calls
Grad: XC                            :      0.000u      0.000s      0.000w     24 calls

**************************************************************************************

Host: DESKTOP-AT3179O

Timers On : Wed Jul 20 14:06:35 2022
Timers Off: Wed Jul 20 14:06:53 2022

Wall Time:       18.43 seconds

                                                       Time (seconds)
Module                                       User      System        Wall        Calls
DFH: sparsity prep                  :      0.000u      0.000s      0.184w     24 calls
Libint2ERI::Libint2ERI              :      0.000u      0.000s      0.583w    288 calls
DFH: initialize()                   :      0.000u      0.000s      1.398w     24 calls
DFH: AO Construction                :      0.000u      0.000s      0.169w     24 calls
DFH: AO-Met. Contraction            :      0.000u      0.000s      0.037w     24 calls
HF: Form core H                     :      0.000u      0.000s      0.127w     24 calls
HF: Form S/X                        :      0.000u      0.000s      0.012w     24 calls
HF: Guess                           :      0.000u      0.000s      1.841w     24 calls
SAD Guess                           :      0.000u      0.000s      1.801w     21 calls
HF: Form G                          :      0.000u      0.000s      0.087w    208 calls
JK: D                               :      0.000u      0.000s      0.002w    208 calls
JK: USO2AO                          :      0.000u      0.000s      0.001w    208 calls
JK: JK                              :      0.000u      0.000s      0.077w    208 calls
DFH: compute_JK()                   :      0.000u      0.000s      0.077w    208 calls
DFH: Grabbing AOs                   :      0.000u      0.000s      0.000w    208 calls
DFH: compute_J                      :      0.000u      0.000s      0.026w    208 calls
DFH: compute_K                      :      0.000u      0.000s      0.041w    208 calls
JK: AO2USO                          :      0.000u      0.000s      0.000w    208 calls
HF: Form F                          :      0.000u      0.000s      0.003w    208 calls
HF: Form D                          :      0.000u      0.000s      0.002w    208 calls
HF: DIIS                            :      0.000u      0.000s      0.368w    187 calls
DIISManager::add_entry              :      0.000u      0.000s      0.064w    184 calls
DIISManager::extrapolate            :      0.000u      0.000s      0.028w    184 calls
bMatrix setup                       :      0.000u      0.000s      0.012w    184 calls
bMatrix pseudoinverse               :      0.000u      0.000s      0.008w    184 calls
New vector                          :      0.000u      0.000s      0.007w    184 calls
HF: Form C                          :      0.000u      0.000s      0.140w    187 calls
Grad: V T Perturb                   :      0.000u      0.000s      1.281w     24 calls
Grad: S                             :      0.000u      0.000s      0.004w     24 calls
Grad: JK                            :      0.000u      0.000s      1.399w     24 calls
JKGrad: Amn                         :      0.000u      0.000s      0.376w     24 calls
JKGrad: Awmn                        :      0.000u      0.000s      0.000w     24 calls
JKGrad: AB                          :      0.000u      0.000s      0.190w     24 calls
JKGrad: UV                          :      0.000u      0.000s      0.007w     24 calls
JKGrad: ABx                         :      0.000u      0.000s      0.075w     24 calls
JKGrad: Amnx                        :      0.000u      0.000s      0.636w     24 calls
Grad: XC                            :      0.000u      0.000s      0.000w     24 calls

--------------------------------------------------------------------------------------
DFH: sparsity prep                  :      0.000u      0.000s      0.184w     24 calls
| Libint2ERI::Libint2ERI            :      0.000u      0.000s      0.116w     24 calls
DFH: initialize()                   :      0.000u      0.000s      1.398w     24 calls
| Libint2ERI::Libint2ERI            :      0.000u      0.000s      0.095w     72 calls
| DFH: AO Construction              :      0.000u      0.000s      0.169w     24 calls
| DFH: AO-Met. Contraction          :      0.000u      0.000s      0.037w     24 calls
HF: Form core H                     :      0.000u      0.000s      0.127w     24 calls
HF: Form S/X                        :      0.000u      0.000s      0.012w     24 calls
HF: Guess                           :      0.000u      0.000s      1.841w     24 calls
| SAD Guess                         :      0.000u      0.000s      1.801w     21 calls
HF: Form G                          :      0.000u      0.000s      0.087w    208 calls
| JK: D                             :      0.000u      0.000s      0.002w    208 calls
| JK: USO2AO                        :      0.000u      0.000s      0.001w    208 calls
| JK: JK                            :      0.000u      0.000s      0.077w    208 calls
| | DFH: compute_JK()               :      0.000u      0.000s      0.077w    208 calls
| | | DFH: Grabbing AOs             :      0.000u      0.000s      0.000w    208 calls
| | | DFH: compute_J                :      0.000u      0.000s      0.026w    208 calls
| | | DFH: compute_K                :      0.000u      0.000s      0.041w    208 calls
| JK: AO2USO                        :      0.000u      0.000s      0.000w    208 calls
HF: Form F                          :      0.000u      0.000s      0.003w    208 calls
HF: Form D                          :      0.000u      0.000s      0.002w    208 calls
HF: DIIS                            :      0.000u      0.000s      0.368w    187 calls
| DIISManager::add_entry            :      0.000u      0.000s      0.064w    184 calls
| DIISManager::extrapolate          :      0.000u      0.000s      0.028w    184 calls
| | bMatrix setup                   :      0.000u      0.000s      0.012w    184 calls
| | bMatrix pseudoinverse           :      0.000u      0.000s      0.008w    184 calls
| | New vector                      :      0.000u      0.000s      0.007w    184 calls
HF: Form C                          :      0.000u      0.000s      0.140w    187 calls
Grad: V T Perturb                   :      0.000u      0.000s      1.281w     24 calls
Grad: S                             :      0.000u      0.000s      0.004w     24 calls
Grad: JK                            :      0.000u      0.000s      1.399w     24 calls
| JKGrad: Amn                       :      0.000u      0.000s      0.376w     24 calls
| | Libint2ERI::Libint2ERI          :      0.000u      0.000s      0.174w     48 calls
| JKGrad: Awmn                      :      0.000u      0.000s      0.000w     24 calls
| JKGrad: AB                        :      0.000u      0.000s      0.190w     24 calls
| | Libint2ERI::Libint2ERI          :      0.000u      0.000s      0.003w     48 calls
| JKGrad: UV                        :      0.000u      0.000s      0.007w     24 calls
| JKGrad: ABx                       :      0.000u      0.000s      0.075w     24 calls
| | Libint2ERI::Libint2ERI          :      0.000u      0.000s      0.003w     48 calls
| JKGrad: Amnx                      :      0.000u      0.000s      0.636w     24 calls
| | Libint2ERI::Libint2ERI          :      0.000u      0.000s      0.192w     48 calls
Grad: XC                            :      0.000u      0.000s      0.000w     24 calls

**************************************************************************************

Host: DESKTOP-AT3179O

Timers On : Wed Jul 20 14:10:41 2022
Timers Off: Wed Jul 20 14:11:11 2022

Wall Time:       30.60 seconds

                                                       Time (seconds)
Module                                       User      System        Wall        Calls
DFH: sparsity prep                  :      0.000u      0.000s      0.293w     24 calls
Libint2ERI::Libint2ERI              :      0.000u      0.000s      1.042w    288 calls
DFH: initialize()                   :      0.000u      0.000s      1.667w     24 calls
DFH: AO Construction                :      0.000u      0.000s      0.263w     24 calls
DFH: AO-Met. Contraction            :      0.000u      0.000s      0.053w     24 calls
HF: Form core H                     :      0.000u      0.000s      0.167w     24 calls
HF: Form S/X                        :      0.000u      0.000s      0.017w     24 calls
HF: Guess                           :      0.000u      0.000s      2.405w     24 calls
SAD Guess                           :      0.000u      0.000s      2.346w     21 calls
HF: Form G                          :      0.000u      0.000s      0.148w    208 calls
JK: D                               :      0.000u      0.000s      0.004w    208 calls
JK: USO2AO                          :      0.000u      0.000s      0.001w    208 calls
JK: JK                              :      0.000u      0.000s      0.133w    208 calls
DFH: compute_JK()                   :      0.000u      0.000s      0.132w    208 calls
DFH: Grabbing AOs                   :      0.000u      0.000s      0.000w    208 calls
DFH: compute_J                      :      0.000u      0.000s      0.038w    208 calls
DFH: compute_K                      :      0.000u      0.000s      0.078w    208 calls
JK: AO2USO                          :      0.000u      0.000s      0.000w    208 calls
HF: Form F                          :      0.000u      0.000s      0.007w    208 calls
HF: Form D                          :      0.000u      0.000s      0.003w    208 calls
HF: DIIS                            :      0.000u      0.000s      0.622w    187 calls
DIISManager::add_entry              :      0.000u      0.000s      0.082w    184 calls
DIISManager::extrapolate            :      0.000u      0.000s      0.048w    184 calls
bMatrix setup                       :      0.000u      0.000s      0.021w    184 calls
bMatrix pseudoinverse               :      0.000u      0.000s      0.013w    184 calls
New vector                          :      0.000u      0.000s      0.012w    184 calls
HF: Form C                          :      0.000u      0.000s      0.264w    187 calls
Grad: V T Perturb                   :      0.000u      0.000s      2.240w     24 calls
Grad: S                             :      0.000u      0.000s      0.006w     24 calls
Grad: JK                            :      0.000u      0.000s      2.621w     24 calls
JKGrad: Amn                         :      0.000u      0.000s      0.730w     24 calls
JKGrad: Awmn                        :      0.000u      0.000s      0.000w     24 calls
JKGrad: AB                          :      0.000u      0.000s      0.345w     24 calls
JKGrad: UV                          :      0.000u      0.000s      0.013w     24 calls
JKGrad: ABx                         :      0.000u      0.000s      0.138w     24 calls
JKGrad: Amnx                        :      0.000u      0.000s      1.206w     24 calls
Grad: XC                            :      0.000u      0.000s      0.000w     24 calls

--------------------------------------------------------------------------------------
DFH: sparsity prep                  :      0.000u      0.000s      0.293w     24 calls
| Libint2ERI::Libint2ERI            :      0.000u      0.000s      0.190w     24 calls
DFH: initialize()                   :      0.000u      0.000s      1.667w     24 calls
| Libint2ERI::Libint2ERI            :      0.000u      0.000s      0.161w     72 calls
| DFH: AO Construction              :      0.000u      0.000s      0.263w     24 calls
| DFH: AO-Met. Contraction          :      0.000u      0.000s      0.053w     24 calls
HF: Form core H                     :      0.000u      0.000s      0.167w     24 calls
HF: Form S/X                        :      0.000u      0.000s      0.017w     24 calls
HF: Guess                           :      0.000u      0.000s      2.405w     24 calls
| SAD Guess                         :      0.000u      0.000s      2.346w     21 calls
HF: Form G                          :      0.000u      0.000s      0.148w    208 calls
| JK: D                             :      0.000u      0.000s      0.004w    208 calls
| JK: USO2AO                        :      0.000u      0.000s      0.001w    208 calls
| JK: JK                            :      0.000u      0.000s      0.133w    208 calls
| | DFH: compute_JK()               :      0.000u      0.000s      0.132w    208 calls
| | | DFH: Grabbing AOs             :      0.000u      0.000s      0.000w    208 calls
| | | DFH: compute_J                :      0.000u      0.000s      0.038w    208 calls
| | | DFH: compute_K                :      0.000u      0.000s      0.078w    208 calls
| JK: AO2USO                        :      0.000u      0.000s      0.000w    208 calls
HF: Form F                          :      0.000u      0.000s      0.007w    208 calls
HF: Form D                          :      0.000u      0.000s      0.003w    208 calls
HF: DIIS                            :      0.000u      0.000s      0.622w    187 calls
| DIISManager::add_entry            :      0.000u      0.000s      0.082w    184 calls
| DIISManager::extrapolate          :      0.000u      0.000s      0.048w    184 calls
| | bMatrix setup                   :      0.000u      0.000s      0.021w    184 calls
| | bMatrix pseudoinverse           :      0.000u      0.000s      0.013w    184 calls
| | New vector                      :      0.000u      0.000s      0.012w    184 calls
HF: Form C                          :      0.000u      0.000s      0.264w    187 calls
Grad: V T Perturb                   :      0.000u      0.000s      2.240w     24 calls
Grad: S                             :      0.000u      0.000s      0.006w     24 calls
Grad: JK                            :      0.000u      0.000s      2.621w     24 calls
| JKGrad: Amn                       :      0.000u      0.000s      0.730w     24 calls
| | Libint2ERI::Libint2ERI          :      0.000u      0.000s      0.335w     48 calls
| JKGrad: Awmn                      :      0.000u      0.000s      0.000w     24 calls
| JKGrad: AB                        :      0.000u      0.000s      0.345w     24 calls
| | Libint2ERI::Libint2ERI          :      0.000u      0.000s      0.005w     48 calls
| JKGrad: UV                        :      0.000u      0.000s      0.013w     24 calls
| JKGrad: ABx                       :      0.000u      0.000s      0.138w     24 calls
| | Libint2ERI::Libint2ERI          :      0.000u      0.000s      0.006w     48 calls
| JKGrad: Amnx                      :      0.000u      0.000s      1.206w     24 calls
| | Libint2ERI::Libint2ERI          :      0.000u      0.000s      0.345w     48 calls
Grad: XC                            :      0.000u      0.000s      0.000w     24 calls

**************************************************************************************

Host: DESKTOP-AT3179O

Timers On : Wed Jul 20 14:18:47 2022
Timers Off: Wed Jul 20 14:19:05 2022

Wall Time:       18.88 seconds

                                                       Time (seconds)
Module                                       User      System        Wall        Calls
DFH: sparsity prep                  :      0.000u      0.000s      0.198w     24 calls
Libint2ERI::Libint2ERI              :      0.000u      0.000s      0.639w    288 calls
DFH: initialize()                   :      0.000u      0.000s      1.480w     24 calls
DFH: AO Construction                :      0.000u      0.000s      0.175w     24 calls
DFH: AO-Met. Contraction            :      0.000u      0.000s      0.031w     24 calls
HF: Form core H                     :      0.000u      0.000s      0.122w     24 calls
HF: Form S/X                        :      0.000u      0.000s      0.012w     24 calls
HF: Guess                           :      0.000u      0.000s      1.859w     24 calls
SAD Guess                           :      0.000u      0.000s      1.822w     21 calls
HF: Form G                          :      0.000u      0.000s      0.091w    208 calls
JK: D                               :      0.000u      0.000s      0.002w    208 calls
JK: USO2AO                          :      0.000u      0.000s      0.001w    208 calls
JK: JK                              :      0.000u      0.000s      0.082w    208 calls
DFH: compute_JK()                   :      0.000u      0.000s      0.081w    208 calls
DFH: Grabbing AOs                   :      0.000u      0.000s      0.000w    208 calls
DFH: compute_J                      :      0.000u      0.000s      0.026w    208 calls
DFH: compute_K                      :      0.000u      0.000s      0.044w    208 calls
JK: AO2USO                          :      0.000u      0.000s      0.000w    208 calls
HF: Form F                          :      0.000u      0.000s      0.003w    208 calls
HF: Form D                          :      0.000u      0.000s      0.002w    208 calls
HF: DIIS                            :      0.000u      0.000s      0.385w    187 calls
DIISManager::add_entry              :      0.000u      0.000s      0.062w    184 calls
DIISManager::extrapolate            :      0.000u      0.000s      0.028w    184 calls
bMatrix setup                       :      0.000u      0.000s      0.012w    184 calls
bMatrix pseudoinverse               :      0.000u      0.000s      0.008w    184 calls
New vector                          :      0.000u      0.000s      0.007w    184 calls
HF: Form C                          :      0.000u      0.000s      0.148w    187 calls
Grad: V T Perturb                   :      0.000u      0.000s      1.336w     24 calls
Grad: S                             :      0.000u      0.000s      0.004w     24 calls
Grad: JK                            :      0.000u      0.000s      1.495w     24 calls
JKGrad: Amn                         :      0.000u      0.000s      0.428w     24 calls
JKGrad: Awmn                        :      0.000u      0.000s      0.000w     24 calls
JKGrad: AB                          :      0.000u      0.000s      0.205w     24 calls
JKGrad: UV                          :      0.000u      0.000s      0.007w     24 calls
JKGrad: ABx                         :      0.000u      0.000s      0.079w     24 calls
JKGrad: Amnx                        :      0.000u      0.000s      0.640w     24 calls
Grad: XC                            :      0.000u      0.000s      0.000w     24 calls

--------------------------------------------------------------------------------------
DFH: sparsity prep                  :      0.000u      0.000s      0.198w     24 calls
| Libint2ERI::Libint2ERI            :      0.000u      0.000s      0.136w     24 calls
DFH: initialize()                   :      0.000u      0.000s      1.480w     24 calls
| Libint2ERI::Libint2ERI            :      0.000u      0.000s      0.112w     72 calls
| DFH: AO Construction              :      0.000u      0.000s      0.175w     24 calls
| DFH: AO-Met. Contraction          :      0.000u      0.000s      0.031w     24 calls
HF: Form core H                     :      0.000u      0.000s      0.122w     24 calls
HF: Form S/X                        :      0.000u      0.000s      0.012w     24 calls
HF: Guess                           :      0.000u      0.000s      1.859w     24 calls
| SAD Guess                         :      0.000u      0.000s      1.822w     21 calls
HF: Form G                          :      0.000u      0.000s      0.091w    208 calls
| JK: D                             :      0.000u      0.000s      0.002w    208 calls
| JK: USO2AO                        :      0.000u      0.000s      0.001w    208 calls
| JK: JK                            :      0.000u      0.000s      0.082w    208 calls
| | DFH: compute_JK()               :      0.000u      0.000s      0.081w    208 calls
| | | DFH: Grabbing AOs             :      0.000u      0.000s      0.000w    208 calls
| | | DFH: compute_J                :      0.000u      0.000s      0.026w    208 calls
| | | DFH: compute_K                :      0.000u      0.000s      0.044w    208 calls
| JK: AO2USO                        :      0.000u      0.000s      0.000w    208 calls
HF: Form F                          :      0.000u      0.000s      0.003w    208 calls
HF: Form D                          :      0.000u      0.000s      0.002w    208 calls
HF: DIIS                            :      0.000u      0.000s      0.385w    187 calls
| DIISManager::add_entry            :      0.000u      0.000s      0.062w    184 calls
| DIISManager::extrapolate          :      0.000u      0.000s      0.028w    184 calls
| | bMatrix setup                   :      0.000u      0.000s      0.012w    184 calls
| | bMatrix pseudoinverse           :      0.000u      0.000s      0.008w    184 calls
| | New vector                      :      0.000u      0.000s      0.007w    184 calls
HF: Form C                          :      0.000u      0.000s      0.148w    187 calls
Grad: V T Perturb                   :      0.000u      0.000s      1.336w     24 calls
Grad: S                             :      0.000u      0.000s      0.004w     24 calls
Grad: JK                            :      0.000u      0.000s      1.495w     24 calls
| JKGrad: Amn                       :      0.000u      0.000s      0.428w     24 calls
| | Libint2ERI::Libint2ERI          :      0.000u      0.000s      0.195w     48 calls
| JKGrad: Awmn                      :      0.000u      0.000s      0.000w     24 calls
| JKGrad: AB                        :      0.000u      0.000s      0.205w     24 calls
| | Libint2ERI::Libint2ERI          :      0.000u      0.000s      0.003w     48 calls
| JKGrad: UV                        :      0.000u      0.000s      0.007w     24 calls
| JKGrad: ABx                       :      0.000u      0.000s      0.079w     24 calls
| | Libint2ERI::Libint2ERI          :      0.000u      0.000s      0.003w     48 calls
| JKGrad: Amnx                      :      0.000u      0.000s      0.640w     24 calls
| | Libint2ERI::Libint2ERI          :      0.000u      0.000s      0.189w     48 calls
Grad: XC                            :      0.000u      0.000s      0.000w     24 calls

**************************************************************************************

Host: DESKTOP-AT3179O

Timers On : Wed Jul 20 14:20:16 2022
Timers Off: Wed Jul 20 14:20:35 2022

Wall Time:       19.61 seconds

                                                       Time (seconds)
Module                                       User      System        Wall        Calls
DFH: sparsity prep                  :      0.000u      0.000s      0.173w     24 calls
Libint2ERI::Libint2ERI              :      0.000u      0.000s      0.666w    288 calls
DFH: initialize()                   :      0.000u      0.000s      1.480w     24 calls
DFH: AO Construction                :      0.000u      0.000s      0.182w     24 calls
DFH: AO-Met. Contraction            :      0.000u      0.000s      0.033w     24 calls
HF: Form core H                     :      0.000u      0.000s      0.119w     24 calls
HF: Form S/X                        :      0.000u      0.000s      0.012w     24 calls
HF: Guess                           :      0.000u      0.000s      1.818w     24 calls
SAD Guess                           :      0.000u      0.000s      1.783w     21 calls
HF: Form G                          :      0.000u      0.000s      0.088w    208 calls
JK: D                               :      0.000u      0.000s      0.002w    208 calls
JK: USO2AO                          :      0.000u      0.000s      0.001w    208 calls
JK: JK                              :      0.000u      0.000s      0.079w    208 calls
DFH: compute_JK()                   :      0.000u      0.000s      0.078w    208 calls
DFH: Grabbing AOs                   :      0.000u      0.000s      0.000w    208 calls
DFH: compute_J                      :      0.000u      0.000s      0.025w    208 calls
DFH: compute_K                      :      0.000u      0.000s      0.043w    208 calls
JK: AO2USO                          :      0.000u      0.000s      0.000w    208 calls
HF: Form F                          :      0.000u      0.000s      0.003w    208 calls
HF: Form D                          :      0.000u      0.000s      0.002w    208 calls
HF: DIIS                            :      0.000u      0.000s      0.392w    187 calls
DIISManager::add_entry              :      0.000u      0.000s      0.065w    184 calls
DIISManager::extrapolate            :      0.000u      0.000s      0.029w    184 calls
bMatrix setup                       :      0.000u      0.000s      0.013w    184 calls
bMatrix pseudoinverse               :      0.000u      0.000s      0.008w    184 calls
New vector                          :      0.000u      0.000s      0.007w    184 calls
HF: Form C                          :      0.000u      0.000s      0.148w    187 calls
Grad: V T Perturb                   :      0.000u      0.000s      1.394w     24 calls
Grad: S                             :      0.000u      0.000s      0.005w     24 calls
Grad: JK                            :      0.000u      0.000s      1.608w     24 calls
JKGrad: Amn                         :      0.000u      0.000s      0.467w     24 calls
JKGrad: Awmn                        :      0.000u      0.000s      0.000w     24 calls
JKGrad: AB                          :      0.000u      0.000s      0.228w     24 calls
JKGrad: UV                          :      0.000u      0.000s      0.008w     24 calls
JKGrad: ABx                         :      0.000u      0.000s      0.083w     24 calls
JKGrad: Amnx                        :      0.000u      0.000s      0.697w     24 calls
Grad: XC                            :      0.000u      0.000s      0.000w     24 calls

--------------------------------------------------------------------------------------
DFH: sparsity prep                  :      0.000u      0.000s      0.173w     24 calls
| Libint2ERI::Libint2ERI            :      0.000u      0.000s      0.115w     24 calls
DFH: initialize()                   :      0.000u      0.000s      1.480w     24 calls
| Libint2ERI::Libint2ERI            :      0.000u      0.000s      0.100w     72 calls
| DFH: AO Construction              :      0.000u      0.000s      0.182w     24 calls
| DFH: AO-Met. Contraction          :      0.000u      0.000s      0.033w     24 calls
HF: Form core H                     :      0.000u      0.000s      0.119w     24 calls
HF: Form S/X                        :      0.000u      0.000s      0.012w     24 calls
HF: Guess                           :      0.000u      0.000s      1.818w     24 calls
| SAD Guess                         :      0.000u      0.000s      1.783w     21 calls
HF: Form G                          :      0.000u      0.000s      0.088w    208 calls
| JK: D                             :      0.000u      0.000s      0.002w    208 calls
| JK: USO2AO                        :      0.000u      0.000s      0.001w    208 calls
| JK: JK                            :      0.000u      0.000s      0.079w    208 calls
| | DFH: compute_JK()               :      0.000u      0.000s      0.078w    208 calls
| | | DFH: Grabbing AOs             :      0.000u      0.000s      0.000w    208 calls
| | | DFH: compute_J                :      0.000u      0.000s      0.025w    208 calls
| | | DFH: compute_K                :      0.000u      0.000s      0.043w    208 calls
| JK: AO2USO                        :      0.000u      0.000s      0.000w    208 calls
HF: Form F                          :      0.000u      0.000s      0.003w    208 calls
HF: Form D                          :      0.000u      0.000s      0.002w    208 calls
HF: DIIS                            :      0.000u      0.000s      0.392w    187 calls
| DIISManager::add_entry            :      0.000u      0.000s      0.065w    184 calls
| DIISManager::extrapolate          :      0.000u      0.000s      0.029w    184 calls
| | bMatrix setup                   :      0.000u      0.000s      0.013w    184 calls
| | bMatrix pseudoinverse           :      0.000u      0.000s      0.008w    184 calls
| | New vector                      :      0.000u      0.000s      0.007w    184 calls
HF: Form C                          :      0.000u      0.000s      0.148w    187 calls
Grad: V T Perturb                   :      0.000u      0.000s      1.394w     24 calls
Grad: S                             :      0.000u      0.000s      0.005w     24 calls
Grad: JK                            :      0.000u      0.000s      1.608w     24 calls
| JKGrad: Amn                       :      0.000u      0.000s      0.467w     24 calls
| | Libint2ERI::Libint2ERI          :      0.000u      0.000s      0.219w     48 calls
| JKGrad: Awmn                      :      0.000u      0.000s      0.000w     24 calls
| JKGrad: AB                        :      0.000u      0.000s      0.228w     24 calls
| | Libint2ERI::Libint2ERI          :      0.000u      0.000s      0.004w     48 calls
| JKGrad: UV                        :      0.000u      0.000s      0.008w     24 calls
| JKGrad: ABx                       :      0.000u      0.000s      0.083w     24 calls
| | Libint2ERI::Libint2ERI          :      0.000u      0.000s      0.003w     48 calls
| JKGrad: Amnx                      :      0.000u      0.000s      0.697w     24 calls
| | Libint2ERI::Libint2ERI          :      0.000u      0.000s      0.225w     48 calls
Grad: XC                            :      0.000u      0.000s      0.000w     24 calls

**************************************************************************************

Host: DESKTOP-AT3179O

Timers On : Wed Jul 20 14:21:06 2022
Timers Off: Wed Jul 20 14:22:21 2022

Wall Time:       75.38 seconds

                                                       Time (seconds)
Module                                       User      System        Wall        Calls
DFH: sparsity prep                  :      0.000u      0.000s      0.185w     24 calls
Libint2ERI::Libint2ERI              :      0.000u      0.000s      0.621w    288 calls
DFH: initialize()                   :      0.000u      0.000s      1.327w     24 calls
DFH: AO Construction                :      0.000u      0.000s      0.153w     24 calls
DFH: AO-Met. Contraction            :      0.000u      0.000s      0.028w     24 calls
HF: Form core H                     :      0.000u      0.000s      0.105w     24 calls
HF: Form S/X                        :      0.000u      0.000s      0.011w     24 calls
HF: Guess                           :      0.000u      0.000s      1.594w     24 calls
SAD Guess                           :      0.000u      0.000s      1.564w     21 calls
HF: Form G                          :      0.000u      0.000s      0.085w    208 calls
JK: D                               :      0.000u      0.000s      0.003w    208 calls
JK: USO2AO                          :      0.000u      0.000s      0.001w    208 calls
JK: JK                              :      0.000u      0.000s      0.075w    208 calls
DFH: compute_JK()                   :      0.000u      0.000s      0.074w    208 calls
DFH: Grabbing AOs                   :      0.000u      0.000s      0.000w    208 calls
DFH: compute_J                      :      0.000u      0.000s      0.025w    208 calls
DFH: compute_K                      :      0.000u      0.000s      0.038w    208 calls
JK: AO2USO                          :      0.000u      0.000s      0.000w    208 calls
HF: Form F                          :      0.000u      0.000s      0.004w    208 calls
HF: Form D                          :      0.000u      0.000s      0.002w    208 calls
HF: DIIS                            :      0.000u      0.000s      0.395w    187 calls
DIISManager::add_entry              :      0.000u      0.000s      0.062w    184 calls
DIISManager::extrapolate            :      0.000u      0.000s      0.028w    184 calls
bMatrix setup                       :      0.000u      0.000s      0.012w    184 calls
bMatrix pseudoinverse               :      0.000u      0.000s      0.008w    184 calls
New vector                          :      0.000u      0.000s      0.007w    184 calls
HF: Form C                          :      0.000u      0.000s      0.149w    187 calls
Grad: V T Perturb                   :      0.000u      0.000s      1.413w     24 calls
Grad: S                             :      0.000u      0.000s      0.004w     24 calls
Grad: JK                            :      0.000u      0.000s      1.464w     24 calls
JKGrad: Amn                         :      0.000u      0.000s      0.414w     24 calls
JKGrad: Awmn                        :      0.000u      0.000s      0.000w     24 calls
JKGrad: AB                          :      0.000u      0.000s      0.184w     24 calls
JKGrad: UV                          :      0.000u      0.000s      0.007w     24 calls
JKGrad: ABx                         :      0.000u      0.000s      0.081w     24 calls
JKGrad: Amnx                        :      0.000u      0.000s      0.653w     24 calls
Grad: XC                            :      0.000u      0.000s      0.000w     24 calls

--------------------------------------------------------------------------------------
DFH: sparsity prep                  :      0.000u      0.000s      0.185w     24 calls
| Libint2ERI::Libint2ERI            :      0.000u      0.000s      0.126w     24 calls
DFH: initialize()                   :      0.000u      0.000s      1.327w     24 calls
| Libint2ERI::Libint2ERI            :      0.000u      0.000s      0.109w     72 calls
| DFH: AO Construction              :      0.000u      0.000s      0.153w     24 calls
| DFH: AO-Met. Contraction          :      0.000u      0.000s      0.028w     24 calls
HF: Form core H                     :      0.000u      0.000s      0.105w     24 calls
HF: Form S/X                        :      0.000u      0.000s      0.011w     24 calls
HF: Guess                           :      0.000u      0.000s      1.594w     24 calls
| SAD Guess                         :      0.000u      0.000s      1.564w     21 calls
HF: Form G                          :      0.000u      0.000s      0.085w    208 calls
| JK: D                             :      0.000u      0.000s      0.003w    208 calls
| JK: USO2AO                        :      0.000u      0.000s      0.001w    208 calls
| JK: JK                            :      0.000u      0.000s      0.075w    208 calls
| | DFH: compute_JK()               :      0.000u      0.000s      0.074w    208 calls
| | | DFH: Grabbing AOs             :      0.000u      0.000s      0.000w    208 calls
| | | DFH: compute_J                :      0.000u      0.000s      0.025w    208 calls
| | | DFH: compute_K                :      0.000u      0.000s      0.038w    208 calls
| JK: AO2USO                        :      0.000u      0.000s      0.000w    208 calls
HF: Form F                          :      0.000u      0.000s      0.004w    208 calls
HF: Form D                          :      0.000u      0.000s      0.002w    208 calls
HF: DIIS                            :      0.000u      0.000s      0.395w    187 calls
| DIISManager::add_entry            :      0.000u      0.000s      0.062w    184 calls
| DIISManager::extrapolate          :      0.000u      0.000s      0.028w    184 calls
| | bMatrix setup                   :      0.000u      0.000s      0.012w    184 calls
| | bMatrix pseudoinverse           :      0.000u      0.000s      0.008w    184 calls
| | New vector                      :      0.000u      0.000s      0.007w    184 calls
HF: Form C                          :      0.000u      0.000s      0.149w    187 calls
Grad: V T Perturb                   :      0.000u      0.000s      1.413w     24 calls
Grad: S                             :      0.000u      0.000s      0.004w     24 calls
Grad: JK                            :      0.000u      0.000s      1.464w     24 calls
| JKGrad: Amn                       :      0.000u      0.000s      0.414w     24 calls
| | Libint2ERI::Libint2ERI          :      0.000u      0.000s      0.192w     48 calls
| JKGrad: Awmn                      :      0.000u      0.000s      0.000w     24 calls
[...]
HF: DIIS                            :      0.000u      0.000s      0.401w    187 calls
DIISManager::add_entry              :      0.000u      0.000s      0.067w    184 calls
DIISManager::extrapolate            :      0.000u      0.000s      0.027w    184 calls
bMatrix setup                       :      0.000u      0.000s      0.012w    184 calls
bMatrix pseudoinverse               :      0.000u      0.000s      0.008w    184 calls
New vector                          :      0.000u      0.000s      0.007w    184 calls
HF: Form C                          :      0.000u      0.000s      0.150w    187 calls
Grad: V T Perturb                   :      0.000u      0.000s      1.331w     24 calls
Grad: S                             :      0.000u      0.000s      0.004w     24 calls
Grad: JK                            :      0.000u      0.000s      1.617w     24 calls
JKGrad: Amn                         :      0.000u      0.000s      0.430w     24 calls
JKGrad: Awmn                        :      0.000u      0.000s      0.000w     24 calls
JKGrad: AB                          :      0.000u      0.000s      0.219w     24 calls
JKGrad: UV                          :      0.000u      0.000s      0.008w     24 calls
JKGrad: ABx                         :      0.000u      0.000s      0.093w     24 calls
JKGrad: Amnx                        :      0.000u      0.000s      0.740w     24 calls
Grad: XC                            :      0.000u      0.000s      0.000w     24 calls

--------------------------------------------------------------------------------------
DFH: sparsity prep                  :      0.000u      0.000s      0.177w     24 calls
| Libint2ERI::Libint2ERI            :      0.000u      0.000s      0.118w     24 calls
DFH: initialize()                   :      0.000u      0.000s      1.414w     24 calls
| Libint2ERI::Libint2ERI            :      0.000u      0.000s      0.101w     72 calls
| DFH: AO Construction              :      0.000u      0.000s      0.154w     24 calls
| DFH: AO-Met. Contraction          :      0.000u      0.000s      0.033w     24 calls
HF: Form core H                     :      0.000u      0.000s      0.118w     24 calls
HF: Form S/X                        :      0.000u      0.000s      0.012w     24 calls
HF: Guess                           :      0.000u      0.000s      1.757w     24 calls
| SAD Guess                         :      0.000u      0.000s      1.723w     21 calls
HF: Form G                          :      0.000u      0.000s      0.088w    208 calls
| JK: D                             :      0.000u      0.000s      0.002w    208 calls
| JK: USO2AO                        :      0.000u      0.000s      0.001w    208 calls
| JK: JK                            :      0.000u      0.000s      0.079w    208 calls
| | DFH: compute_JK()               :      0.000u      0.000s      0.079w    208 calls
| | | DFH: Grabbing AOs             :      0.000u      0.000s      0.000w    208 calls
| | | DFH: compute_J                :      0.000u      0.000s      0.024w    208 calls
| | | DFH: compute_K                :      0.000u      0.000s      0.043w    208 calls
| JK: AO2USO                        :      0.000u      0.000s      0.000w    208 calls
HF: Form F                          :      0.000u      0.000s      0.003w    208 calls
HF: Form D                          :      0.000u      0.000s      0.002w    208 calls
HF: DIIS                            :      0.000u      0.000s      0.401w    187 calls
| DIISManager::add_entry            :      0.000u      0.000s      0.067w    184 calls
| DIISManager::extrapolate          :      0.000u      0.000s      0.027w    184 calls
| | bMatrix setup                   :      0.000u      0.000s      0.012w    184 calls
| | bMatrix pseudoinverse           :      0.000u      0.000s      0.008w    184 calls
| | New vector                      :      0.000u      0.000s      0.007w    184 calls
HF: Form C                          :      0.000u      0.000s      0.150w    187 calls
Grad: V T Perturb                   :      0.000u      0.000s      1.331w     24 calls
Grad: S                             :      0.000u      0.000s      0.004w     24 calls
Grad: JK                            :      0.000u      0.000s      1.617w     24 calls
| JKGrad: Amn                       :      0.000u      0.000s      0.430w     24 calls
| | Libint2ERI::Libint2ERI          :      0.000u      0.000s      0.194w     48 calls
| JKGrad: Awmn                      :      0.000u      0.000s      0.000w     24 calls
| JKGrad: AB                        :      0.000u      0.000s      0.219w     24 calls
| | Libint2ERI::Libint2ERI          :      0.000u      0.000s      0.003w     48 calls
| JKGrad: UV                        :      0.000u      0.000s      0.008w     24 calls
| JKGrad: ABx                       :      0.000u      0.000s      0.093w     24 calls
| | Libint2ERI::Libint2ERI          :      0.000u      0.000s      0.003w     48 calls
| JKGrad: Amnx                      :      0.000u      0.000s      0.740w     24 calls
| | Libint2ERI::Libint2ERI          :      0.000u      0.000s      0.231w     48 calls
Grad: XC                            :      0.000u      0.000s      0.000w     24 calls

**************************************************************************************

Host: DESKTOP-AT3179O

Timers On : Wed Jul 20 14:40:05 2022
Timers Off: Wed Jul 20 14:40:25 2022

Wall Time:       19.26 seconds

                                                       Time (seconds)
Module                                       User      System        Wall        Calls
DFH: sparsity prep                  :      0.000u      0.000s      0.175w     24 calls
Libint2ERI::Libint2ERI              :      0.000u      0.000s      0.643w    288 calls
DFH: initialize()                   :      0.000u      0.000s      1.358w     24 calls
DFH: AO Construction                :      0.000u      0.000s      0.156w     24 calls
DFH: AO-Met. Contraction            :      0.000u      0.000s      0.035w     24 calls
HF: Form core H                     :      0.000u      0.000s      0.126w     24 calls
HF: Form S/X                        :      0.000u      0.000s      0.013w     24 calls
HF: Guess                           :      0.000u      0.000s      1.838w     24 calls
SAD Guess                           :      0.000u      0.000s      1.798w     21 calls
HF: Form G                          :      0.000u      0.000s      0.087w    208 calls
JK: D                               :      0.000u      0.000s      0.002w    208 calls
JK: USO2AO                          :      0.000u      0.000s      0.001w    208 calls
JK: JK                              :      0.000u      0.000s      0.078w    208 calls
DFH: compute_JK()                   :      0.000u      0.000s      0.077w    208 calls
DFH: Grabbing AOs                   :      0.000u      0.000s      0.000w    208 calls
DFH: compute_J                      :      0.000u      0.000s      0.025w    208 calls
DFH: compute_K                      :      0.000u      0.000s      0.041w    208 calls
JK: AO2USO                          :      0.000u      0.000s      0.000w    208 calls
HF: Form F                          :      0.000u      0.000s      0.003w    208 calls
HF: Form D                          :      0.000u      0.000s      0.002w    208 calls
HF: DIIS                            :      0.000u      0.000s      0.375w    187 calls
DIISManager::add_entry              :      0.000u      0.000s      0.065w    184 calls
DIISManager::extrapolate            :      0.000u      0.000s      0.026w    184 calls
bMatrix setup                       :      0.000u      0.000s      0.011w    184 calls
bMatrix pseudoinverse               :      0.000u      0.000s      0.008w    184 calls
New vector                          :      0.000u      0.000s      0.007w    184 calls
HF: Form C                          :      0.000u      0.000s      0.139w    187 calls
Grad: V T Perturb                   :      0.000u      0.000s      1.437w     24 calls
Grad: S                             :      0.000u      0.000s      0.005w     24 calls
Grad: JK                            :      0.000u      0.000s      1.607w     24 calls
JKGrad: Amn                         :      0.000u      0.000s      0.474w     24 calls
JKGrad: Awmn                        :      0.000u      0.000s      0.000w     24 calls
JKGrad: AB                          :      0.000u      0.000s      0.207w     24 calls
JKGrad: UV                          :      0.000u      0.000s      0.008w     24 calls
JKGrad: ABx                         :      0.000u      0.000s      0.087w     24 calls
JKGrad: Amnx                        :      0.000u      0.000s      0.701w     24 calls
Grad: XC                            :      0.000u      0.000s      0.000w     24 calls

--------------------------------------------------------------------------------------
DFH: sparsity prep                  :      0.000u      0.000s      0.175w     24 calls
| Libint2ERI::Libint2ERI            :      0.000u      0.000s      0.121w     24 calls
DFH: initialize()                   :      0.000u      0.000s      1.358w     24 calls
| Libint2ERI::Libint2ERI            :      0.000u      0.000s      0.093w     72 calls
| DFH: AO Construction              :      0.000u      0.000s      0.156w     24 calls
| DFH: AO-Met. Contraction          :      0.000u      0.000s      0.035w     24 calls
HF: Form core H                     :      0.000u      0.000s      0.126w     24 calls
HF: Form S/X                        :      0.000u      0.000s      0.013w     24 calls
HF: Guess                           :      0.000u      0.000s      1.838w     24 calls
| SAD Guess                         :      0.000u      0.000s      1.798w     21 calls
HF: Form G                          :      0.000u      0.000s      0.087w    208 calls
| JK: D                             :      0.000u      0.000s      0.002w    208 calls
| JK: USO2AO                        :      0.000u      0.000s      0.001w    208 calls
| JK: JK                            :      0.000u      0.000s      0.078w    208 calls
| | DFH: compute_JK()               :      0.000u      0.000s      0.077w    208 calls
| | | DFH: Grabbing AOs             :      0.000u      0.000s      0.000w    208 calls
| | | DFH: compute_J                :      0.000u      0.000s      0.025w    208 calls
| | | DFH: compute_K                :      0.000u      0.000s      0.041w    208 calls
| JK: AO2USO                        :      0.000u      0.000s      0.000w    208 calls
HF: Form F                          :      0.000u      0.000s      0.003w    208 calls
HF: Form D                          :      0.000u      0.000s      0.002w    208 calls
HF: DIIS                            :      0.000u      0.000s      0.375w    187 calls
| DIISManager::add_entry            :      0.000u      0.000s      0.065w    184 calls
| DIISManager::extrapolate          :      0.000u      0.000s      0.026w    184 calls
| | bMatrix setup                   :      0.000u      0.000s      0.011w    184 calls
| | bMatrix pseudoinverse           :      0.000u      0.000s      0.008w    184 calls
| | New vector                      :      0.000u      0.000s      0.007w    184 calls
HF: Form C                          :      0.000u      0.000s      0.139w    187 calls
Grad: V T Perturb                   :      0.000u      0.000s      1.437w     24 calls
Grad: S                             :      0.000u      0.000s      0.005w     24 calls
Grad: JK                            :      0.000u      0.000s      1.607w     24 calls
| JKGrad: Amn                       :      0.000u      0.000s      0.474w     24 calls
| | Libint2ERI::Libint2ERI          :      0.000u      0.000s      0.206w     48 calls
| JKGrad: Awmn                      :      0.000u      0.000s      0.000w     24 calls
| JKGrad: AB                        :      0.000u      0.000s      0.207w     24 calls
| | Libint2ERI::Libint2ERI          :      0.000u      0.000s      0.003w     48 calls
| JKGrad: UV                        :      0.000u      0.000s      0.008w     24 calls
| JKGrad: ABx                       :      0.000u      0.000s      0.087w     24 calls
| | Libint2ERI::Libint2ERI          :      0.000u      0.000s      0.003w     48 calls
| JKGrad: Amnx                      :      0.000u      0.000s      0.701w     24 calls
| | Libint2ERI::Libint2ERI          :      0.000u      0.000s      0.216w     48 calls
Grad: XC                            :      0.000u      0.000s      0.000w     24 calls

**************************************************************************************

Host: DESKTOP-AT3179O

Timers On : Wed Jul 20 14:46:39 2022
Timers Off: Wed Jul 20 14:46:58 2022

Wall Time:       18.66 seconds

                                                       Time (seconds)
Module                                       User      System        Wall        Calls
DFH: sparsity prep                  :      0.000u      0.000s      0.185w     24 calls
Libint2ERI::Libint2ERI              :      0.000u      0.000s      0.598w    288 calls
DFH: initialize()                   :      0.000u      0.000s      1.473w     24 calls
DFH: AO Construction                :      0.000u      0.000s      0.181w     24 calls
DFH: AO-Met. Contraction            :      0.000u      0.000s      0.039w     24 calls
HF: Form core H                     :      0.000u      0.000s      0.134w     24 calls
HF: Form S/X                        :      0.000u      0.000s      0.013w     24 calls
HF: Guess                           :      0.000u      0.000s      1.908w     24 calls
SAD Guess                           :      0.000u      0.000s      1.869w     21 calls
HF: Form G                          :      0.000u      0.000s      0.087w    208 calls
JK: D                               :      0.000u      0.000s      0.002w    208 calls
JK: USO2AO                          :      0.000u      0.000s      0.001w    208 calls
JK: JK                              :      0.000u      0.000s      0.078w    208 calls
DFH: compute_JK()                   :      0.000u      0.000s      0.077w    208 calls
DFH: Grabbing AOs                   :      0.000u      0.000s      0.000w    208 calls
DFH: compute_J                      :      0.000u      0.000s      0.025w    208 calls
DFH: compute_K                      :      0.000u      0.000s      0.042w    208 calls
JK: AO2USO                          :      0.000u      0.000s      0.000w    208 calls
HF: Form F                          :      0.000u      0.000s      0.003w    208 calls
HF: Form D                          :      0.000u      0.000s      0.001w    208 calls
HF: DIIS                            :      0.000u      0.000s      0.368w    187 calls
DIISManager::add_entry              :      0.000u      0.000s      0.061w    184 calls
DIISManager::extrapolate            :      0.000u      0.000s      0.027w    184 calls
bMatrix setup                       :      0.000u      0.000s      0.011w    184 calls
bMatrix pseudoinverse               :      0.000u      0.000s      0.008w    184 calls
New vector                          :      0.000u      0.000s      0.007w    184 calls
HF: Form C                          :      0.000u      0.000s      0.138w    187 calls
Grad: V T Perturb                   :      0.000u      0.000s      1.355w     24 calls
Grad: S                             :      0.000u      0.000s      0.004w     24 calls
Grad: JK                            :      0.000u      0.000s      1.423w     24 calls
JKGrad: Amn                         :      0.000u      0.000s      0.397w     24 calls
JKGrad: Awmn                        :      0.000u      0.000s      0.000w     24 calls
JKGrad: AB                          :      0.000u      0.000s      0.211w     24 calls
JKGrad: UV                          :      0.000u      0.000s      0.007w     24 calls
JKGrad: ABx                         :      0.000u      0.000s      0.082w     24 calls
JKGrad: Amnx                        :      0.000u      0.000s      0.601w     24 calls
Grad: XC                            :      0.000u      0.000s      0.000w     24 calls

--------------------------------------------------------------------------------------
DFH: sparsity prep                  :      0.000u      0.000s      0.185w     24 calls
| Libint2ERI::Libint2ERI            :      0.000u      0.000s      0.125w     24 calls
DFH: initialize()                   :      0.000u      0.000s      1.473w     24 calls
| Libint2ERI::Libint2ERI            :      0.000u      0.000s      0.103w     72 calls
| DFH: AO Construction              :      0.000u      0.000s      0.181w     24 calls
| DFH: AO-Met. Contraction          :      0.000u      0.000s      0.039w     24 calls
HF: Form core H                     :      0.000u      0.000s      0.134w     24 calls
HF: Form S/X                        :      0.000u      0.000s      0.013w     24 calls
HF: Guess                           :      0.000u      0.000s      1.908w     24 calls
| SAD Guess                         :      0.000u      0.000s      1.869w     21 calls
HF: Form G                          :      0.000u      0.000s      0.087w    208 calls
| JK: D                             :      0.000u      0.000s      0.002w    208 calls
| JK: USO2AO                        :      0.000u      0.000s      0.001w    208 calls
| JK: JK                            :      0.000u      0.000s      0.078w    208 calls
| | DFH: compute_JK()               :      0.000u      0.000s      0.077w    208 calls
| | | DFH: Grabbing AOs             :      0.000u      0.000s      0.000w    208 calls
| | | DFH: compute_J                :      0.000u      0.000s      0.025w    208 calls
| | | DFH: compute_K                :      0.000u      0.000s      0.042w    208 calls
| JK: AO2USO                        :      0.000u      0.000s      0.000w    208 calls
HF: Form F                          :      0.000u      0.000s      0.003w    208 calls
HF: Form D                          :      0.000u      0.000s      0.001w    208 calls
HF: DIIS                            :      0.000u      0.000s      0.368w    187 calls
| DIISManager::add_entry            :      0.000u      0.000s      0.061w    184 calls
| DIISManager::extrapolate          :      0.000u      0.000s      0.027w    184 calls
| | bMatrix setup                   :      0.000u      0.000s      0.011w    184 calls
| | bMatrix pseudoinverse           :      0.000u      0.000s      0.008w    184 calls
| | New vector                      :      0.000u      0.000s      0.007w    184 calls
HF: Form C                          :      0.000u      0.000s      0.138w    187 calls
Grad: V T Perturb                   :      0.000u      0.000s      1.355w     24 calls
Grad: S                             :      0.000u      0.000s      0.004w     24 calls
Grad: JK                            :      0.000u      0.000s      1.423w     24 calls
| JKGrad: Amn                       :      0.000u      0.000s      0.397w     24 calls
| | Libint2ERI::Libint2ERI          :      0.000u      0.000s      0.179w     48 calls
| JKGrad: Awmn                      :      0.000u      0.000s      0.000w     24 calls
| JKGrad: AB                        :      0.000u      0.000s      0.211w     24 calls
| | Libint2ERI::Libint2ERI          :      0.000u      0.000s      0.003w     48 calls
| JKGrad: UV                        :      0.000u      0.000s      0.007w     24 calls
| JKGrad: ABx                       :      0.000u      0.000s      0.082w     24 calls
| | Libint2ERI::Libint2ERI          :      0.000u      0.000s      0.003w     48 calls
| JKGrad: Amnx                      :      0.000u      0.000s      0.601w     24 calls
| | Libint2ERI::Libint2ERI          :      0.000u      0.000s      0.185w     48 calls
Grad: XC                            :      0.000u      0.000s      0.000w     24 calls

**************************************************************************************
