
Host: DESKTOP-NQSA13R

Timers On : Wed Jul 20 13:45:51 2022
Timers Off: Wed Jul 20 13:46:29 2022

Wall Time:       38.19 seconds

                                                       Time (seconds)
Module                                       User      System        Wall        Calls
DFH: sparsity prep                  :      0.000u      0.000s      0.559w     24 calls
Libint2ERI::Libint2ERI              :      0.000u      0.000s      0.988w    288 calls
DFH: initialize()                   :      0.000u      0.000s      1.150w     24 calls
DFH: AO Construction                :      0.000u      0.000s      0.210w     24 calls
DFH: AO-Met. Contraction            :      0.000u      0.000s      0.024w     24 calls
HF: Form core H                     :      0.000u      0.000s      0.341w     24 calls
HF: Form S/X                        :      0.000u      0.000s      0.023w     24 calls
HF: Guess                           :      0.000u      0.000s      0.861w     24 calls
SAD Guess                           :      0.000u      0.000s      0.799w     21 calls
HF: Form G                          :      0.000u      0.000s      0.134w    208 calls
JK: D                               :      0.000u      0.000s      0.001w    208 calls
JK: USO2AO                          :      0.000u      0.000s      0.000w    208 calls
JK: JK                              :      0.000u      0.000s      0.092w    208 calls
DFH: compute_JK()                   :      0.000u      0.000s      0.091w    208 calls
DFH: Grabbing AOs                   :      0.000u      0.000s      0.000w    208 calls
DFH: compute_J                      :      0.000u      0.000s      0.029w    208 calls
DFH: compute_K                      :      0.000u      0.000s      0.053w    208 calls
JK: AO2USO                          :      0.000u      0.000s      0.000w    208 calls
HF: Form F                          :      0.000u      0.000s      0.005w    208 calls
HF: Form D                          :      0.000u      0.000s      0.001w    208 calls
HF: DIIS                            :      0.000u      0.000s      0.547w    187 calls
DIISManager::add_entry              :      0.000u      0.000s      0.236w    184 calls
DIISManager::extrapolate            :      0.000u      0.000s      0.026w    184 calls
bMatrix setup                       :      0.000u      0.000s      0.011w    184 calls
bMatrix pseudoinverse               :      0.000u      0.000s      0.006w    184 calls
New vector                          :      0.000u      0.000s      0.008w    184 calls
HF: Form C                          :      0.000u      0.000s      0.133w    187 calls
Grad: V T Perturb                   :      0.000u      0.000s      1.458w     24 calls
Grad: S                             :      0.000u      0.000s      0.004w     24 calls
Grad: JK                            :      0.000u      0.000s      2.179w     24 calls
JKGrad: Amn                         :      0.000u      0.000s      0.778w     24 calls
JKGrad: Awmn                        :      0.000u      0.000s      0.000w     24 calls
JKGrad: AB                          :      0.000u      0.000s      0.202w     24 calls
JKGrad: UV                          :      0.000u      0.000s      0.007w     24 calls
JKGrad: ABx                         :      0.000u      0.000s      0.125w     24 calls
JKGrad: Amnx                        :      0.000u      0.000s      0.964w     24 calls
Grad: XC                            :      0.000u      0.000s      0.000w     24 calls

--------------------------------------------------------------------------------------
DFH: sparsity prep                  :      0.000u      0.000s      0.559w     24 calls
| Libint2ERI::Libint2ERI            :      0.000u      0.000s      0.451w     24 calls
DFH: initialize()                   :      0.000u      0.000s      1.150w     24 calls
| Libint2ERI::Libint2ERI            :      0.000u      0.000s      0.097w     72 calls
| DFH: AO Construction              :      0.000u      0.000s      0.210w     24 calls
| DFH: AO-Met. Contraction          :      0.000u      0.000s      0.024w     24 calls
HF: Form core H                     :      0.000u      0.000s      0.341w     24 calls
HF: Form S/X                        :      0.000u      0.000s      0.023w     24 calls
HF: Guess                           :      0.000u      0.000s      0.861w     24 calls
| SAD Guess                         :      0.000u      0.000s      0.799w     21 calls
HF: Form G                          :      0.000u      0.000s      0.134w    208 calls
| JK: D                             :      0.000u      0.000s      0.001w    208 calls
| JK: USO2AO                        :      0.000u      0.000s      0.000w    208 calls
| JK: JK                            :      0.000u      0.000s      0.092w    208 calls
| | DFH: compute_JK()               :      0.000u      0.000s      0.091w    208 calls
| | | DFH: Grabbing AOs             :      0.000u      0.000s      0.000w    208 calls
| | | DFH: compute_J                :      0.000u      0.000s      0.029w    208 calls
| | | DFH: compute_K                :      0.000u      0.000s      0.053w    208 calls
| JK: AO2USO                        :      0.000u      0.000s      0.000w    208 calls
HF: Form F                          :      0.000u      0.000s      0.005w    208 calls
HF: Form D                          :      0.000u      0.000s      0.001w    208 calls
HF: DIIS                            :      0.000u      0.000s      0.547w    187 calls
| DIISManager::add_entry            :      0.000u      0.000s      0.236w    184 calls
| DIISManager::extrapolate          :      0.000u      0.000s      0.026w    184 calls
| | bMatrix setup                   :      0.000u      0.000s      0.011w    184 calls
| | bMatrix pseudoinverse           :      0.000u      0.000s      0.006w    184 calls
| | New vector                      :      0.000u      0.000s      0.008w    184 calls
HF: Form C                          :      0.000u      0.000s      0.133w    187 calls
Grad: V T Perturb                   :      0.000u      0.000s      1.458w     24 calls
Grad: S                             :      0.000u      0.000s      0.004w     24 calls
Grad: JK                            :      0.000u      0.000s      2.179w     24 calls
| JKGrad: Amn                       :      0.000u      0.000s      0.778w     24 calls
| | Libint2ERI::Libint2ERI          :      0.000u      0.000s      0.215w     48 calls
| JKGrad: Awmn                      :      0.000u      0.000s      0.000w     24 calls
| JKGrad: AB                        :      0.000u      0.000s      0.202w     24 calls
| | Libint2ERI::Libint2ERI          :      0.000u      0.000s      0.002w     48 calls
| JKGrad: UV                        :      0.000u      0.000s      0.007w     24 calls
| JKGrad: ABx                       :      0.000u      0.000s      0.125w     24 calls
| | Libint2ERI::Libint2ERI          :      0.000u      0.000s      0.002w     48 calls
| JKGrad: Amnx                      :      0.000u      0.000s      0.964w     24 calls
| | Libint2ERI::Libint2ERI          :      0.000u      0.000s      0.220w     48 calls
Grad: XC                            :      0.000u      0.000s      0.000w     24 calls

**************************************************************************************

Host: DESKTOP-NQSA13R

Timers On : Wed Jul 20 13:58:08 2022
Timers Off: Wed Jul 20 13:58:25 2022

Wall Time:       17.01 seconds

                                                       Time (seconds)
Module                                       User      System        Wall        Calls
DFH: sparsity prep                  :      0.000u      0.000s      0.159w     24 calls
Libint2ERI::Libint2ERI              :      0.000u      0.000s      0.626w    288 calls
DFH: initialize()                   :      0.000u      0.000s      0.544w     24 calls
DFH: AO Construction                :      0.000u      0.000s      0.133w     24 calls
DFH: AO-Met. Contraction            :      0.000u      0.000s      0.025w     24 calls
HF: Form core H                     :      0.000u      0.000s      0.240w     24 calls
HF: Form S/X                        :      0.000u      0.000s      0.009w     24 calls
HF: Guess                           :      0.000u      0.000s      0.763w     24 calls
SAD Guess                           :      0.000u      0.000s      0.735w     21 calls
HF: Form G                          :      0.000u      0.000s      0.089w    208 calls
JK: D                               :      0.000u      0.000s      0.002w    208 calls
JK: USO2AO                          :      0.000u      0.000s      0.001w    208 calls
JK: JK                              :      0.000u      0.000s      0.081w    208 calls
DFH: compute_JK()                   :      0.000u      0.000s      0.081w    208 calls
DFH: Grabbing AOs                   :      0.000u      0.000s      0.000w    208 calls
DFH: compute_J                      :      0.000u      0.000s      0.032w    208 calls
DFH: compute_K                      :      0.000u      0.000s      0.038w    208 calls
JK: AO2USO                          :      0.000u      0.000s      0.000w    208 calls
HF: Form F                          :      0.000u      0.000s      0.004w    208 calls
HF: Form D                          :      0.000u      0.000s      0.002w    208 calls
HF: DIIS                            :      0.000u      0.000s      0.538w    187 calls
DIISManager::add_entry              :      0.000u      0.000s      0.224w    184 calls
DIISManager::extrapolate            :      0.000u      0.000s      0.028w    184 calls
bMatrix setup                       :      0.000u      0.000s      0.012w    184 calls
bMatrix pseudoinverse               :      0.000u      0.000s      0.007w    184 calls
New vector                          :      0.000u      0.000s      0.008w    184 calls
HF: Form C                          :      0.000u      0.000s      0.143w    187 calls
Grad: V T Perturb                   :      0.000u      0.000s      1.479w     24 calls
Grad: S                             :      0.000u      0.000s      0.004w     24 calls
Grad: JK                            :      0.000u      0.000s      1.495w     24 calls
JKGrad: Amn                         :      0.000u      0.000s      0.488w     24 calls
JKGrad: Awmn                        :      0.000u      0.000s      0.000w     24 calls
JKGrad: AB                          :      0.000u      0.000s      0.195w     24 calls
JKGrad: UV                          :      0.000u      0.000s      0.007w     24 calls
JKGrad: ABx                         :      0.000u      0.000s      0.074w     24 calls
JKGrad: Amnx                        :      0.000u      0.000s      0.630w     24 calls
Grad: XC                            :      0.000u      0.000s      0.000w     24 calls

--------------------------------------------------------------------------------------
DFH: sparsity prep                  :      0.000u      0.000s      0.159w     24 calls
| Libint2ERI::Libint2ERI            :      0.000u      0.000s      0.107w     24 calls
DFH: initialize()                   :      0.000u      0.000s      0.544w     24 calls
| Libint2ERI::Libint2ERI            :      0.000u      0.000s      0.101w     72 calls
| DFH: AO Construction              :      0.000u      0.000s      0.133w     24 calls
| DFH: AO-Met. Contraction          :      0.000u      0.000s      0.025w     24 calls
HF: Form core H                     :      0.000u      0.000s      0.240w     24 calls
HF: Form S/X                        :      0.000u      0.000s      0.009w     24 calls
HF: Guess                           :      0.000u      0.000s      0.763w     24 calls
| SAD Guess                         :      0.000u      0.000s      0.735w     21 calls
HF: Form G                          :      0.000u      0.000s      0.089w    208 calls
| JK: D                             :      0.000u      0.000s      0.002w    208 calls
| JK: USO2AO                        :      0.000u      0.000s      0.001w    208 calls
| JK: JK                            :      0.000u      0.000s      0.081w    208 calls
| | DFH: compute_JK()               :      0.000u      0.000s      0.081w    208 calls
| | | DFH: Grabbing AOs             :      0.000u      0.000s      0.000w    208 calls
| | | DFH: compute_J                :      0.000u      0.000s      0.032w    208 calls
| | | DFH: compute_K                :      0.000u      0.000s      0.038w    208 calls
| JK: AO2USO                        :      0.000u      0.000s      0.000w    208 calls
HF: Form F                          :      0.000u      0.000s      0.004w    208 calls
HF: Form D                          :      0.000u      0.000s      0.002w    208 calls
HF: DIIS                            :      0.000u      0.000s      0.538w    187 calls
| DIISManager::add_entry            :      0.000u      0.000s      0.224w    184 calls
| DIISManager::extrapolate          :      0.000u      0.000s      0.028w    184 calls
| | bMatrix setup                   :      0.000u      0.000s      0.012w    184 calls
| | bMatrix pseudoinverse           :      0.000u      0.000s      0.007w    184 calls
| | New vector                      :      0.000u      0.000s      0.008w    184 calls
HF: Form C                          :      0.000u      0.000s      0.143w    187 calls
Grad: V T Perturb                   :      0.000u      0.000s      1.479w     24 calls
Grad: S                             :      0.000u      0.000s      0.004w     24 calls
Grad: JK                            :      0.000u      0.000s      1.495w     24 calls
| JKGrad: Amn                       :      0.000u      0.000s      0.488w     24 calls
| | Libint2ERI::Libint2ERI          :      0.000u      0.000s      0.218w     48 calls
| JKGrad: Awmn                      :      0.000u      0.000s      0.000w     24 calls
| JKGrad: AB                        :      0.000u      0.000s      0.195w     24 calls
| | Libint2ERI::Libint2ERI          :      0.000u      0.000s      0.002w     48 calls
| JKGrad: UV                        :      0.000u      0.000s      0.007w     24 calls
| JKGrad: ABx                       :      0.000u      0.000s      0.074w     24 calls
| | Libint2ERI::Libint2ERI          :      0.000u      0.000s      0.002w     48 calls
| JKGrad: Amnx                      :      0.000u      0.000s      0.630w     24 calls
| | Libint2ERI::Libint2ERI          :      0.000u      0.000s      0.196w     48 calls
Grad: XC                            :      0.000u      0.000s      0.000w     24 calls

**************************************************************************************

Host: DESKTOP-NQSA13R

Timers On : Wed Jul 20 13:59:50 2022
Timers Off: Wed Jul 20 14:00:05 2022

Wall Time:       14.91 seconds

                                                       Time (seconds)
Module                                       User      System        Wall        Calls
DFH: sparsity prep                  :      0.000u      0.000s      0.148w     24 calls
Libint2ERI::Libint2ERI              :      0.000u      0.000s      0.567w    288 calls
DFH: initialize()                   :      0.000u      0.000s      0.494w     24 calls
DFH: AO Construction                :      0.000u      0.000s      0.112w     24 calls
DFH: AO-Met. Contraction            :      0.000u      0.000s      0.024w     24 calls
HF: Form core H                     :      0.000u      0.000s      0.123w     24 calls
HF: Form S/X                        :      0.000u      0.000s      0.008w     24 calls
HF: Guess                           :      0.000u      0.000s      0.686w     24 calls
SAD Guess                           :      0.000u      0.000s      0.662w     21 calls
HF: Form G                          :      0.000u      0.000s      0.085w    208 calls
JK: D                               :      0.000u      0.000s      0.002w    208 calls
JK: USO2AO                          :      0.000u      0.000s      0.000w    208 calls
JK: JK                              :      0.000u      0.000s      0.078w    208 calls
DFH: compute_JK()                   :      0.000u      0.000s      0.078w    208 calls
DFH: Grabbing AOs                   :      0.000u      0.000s      0.000w    208 calls
DFH: compute_J                      :      0.000u      0.000s      0.034w    208 calls
DFH: compute_K                      :      0.000u      0.000s      0.033w    208 calls
JK: AO2USO                          :      0.000u      0.000s      0.000w    208 calls
HF: Form F                          :      0.000u      0.000s      0.014w    208 calls
HF: Form D                          :      0.000u      0.000s      0.001w    208 calls
HF: DIIS                            :      0.000u      0.000s      0.380w    187 calls
DIISManager::add_entry              :      0.000u      0.000s      0.112w    184 calls
DIISManager::extrapolate            :      0.000u      0.000s      0.025w    184 calls
bMatrix setup                       :      0.000u      0.000s      0.011w    184 calls
bMatrix pseudoinverse               :      0.000u      0.000s      0.005w    184 calls
New vector                          :      0.000u      0.000s      0.008w    184 calls
HF: Form C                          :      0.000u      0.000s      0.134w    187 calls
Grad: V T Perturb                   :      0.000u      0.000s      1.357w     24 calls
Grad: S                             :      0.000u      0.000s      0.003w     24 calls
Grad: JK                            :      0.000u      0.000s      1.446w     24 calls
JKGrad: Amn                         :      0.000u      0.000s      0.464w     24 calls
JKGrad: Awmn                        :      0.000u      0.000s      0.000w     24 calls
JKGrad: AB                          :      0.000u      0.000s      0.201w     24 calls
JKGrad: UV                          :      0.000u      0.000s      0.007w     24 calls
JKGrad: ABx                         :      0.000u      0.000s      0.070w     24 calls
JKGrad: Amnx                        :      0.000u      0.000s      0.615w     24 calls
Grad: XC                            :      0.000u      0.000s      0.000w     24 calls

--------------------------------------------------------------------------------------
DFH: sparsity prep                  :      0.000u      0.000s      0.148w     24 calls
| Libint2ERI::Libint2ERI            :      0.000u      0.000s      0.100w     24 calls
DFH: initialize()                   :      0.000u      0.000s      0.494w     24 calls
| Libint2ERI::Libint2ERI            :      0.000u      0.000s      0.091w     72 calls
| DFH: AO Construction              :      0.000u      0.000s      0.112w     24 calls
| DFH: AO-Met. Contraction          :      0.000u      0.000s      0.024w     24 calls
HF: Form core H                     :      0.000u      0.000s      0.123w     24 calls
HF: Form S/X                        :      0.000u      0.000s      0.008w     24 calls
HF: Guess                           :      0.000u      0.000s      0.686w     24 calls
| SAD Guess                         :      0.000u      0.000s      0.662w     21 calls
HF: Form G                          :      0.000u      0.000s      0.085w    208 calls
| JK: D                             :      0.000u      0.000s      0.002w    208 calls
| JK: USO2AO                        :      0.000u      0.000s      0.000w    208 calls
| JK: JK                            :      0.000u      0.000s      0.078w    208 calls
| | DFH: compute_JK()               :      0.000u      0.000s      0.078w    208 calls
| | | DFH: Grabbing AOs             :      0.000u      0.000s      0.000w    208 calls
| | | DFH: compute_J                :      0.000u      0.000s      0.034w    208 calls
| | | DFH: compute_K                :      0.000u      0.000s      0.033w    208 calls
| JK: AO2USO                        :      0.000u      0.000s      0.000w    208 calls
HF: Form F                          :      0.000u      0.000s      0.014w    208 calls
HF: Form D                          :      0.000u      0.000s      0.001w    208 calls
HF: DIIS                            :      0.000u      0.000s      0.380w    187 calls
| DIISManager::add_entry            :      0.000u      0.000s      0.112w    184 calls
| DIISManager::extrapolate          :      0.000u      0.000s      0.025w    184 calls
| | bMatrix setup                   :      0.000u      0.000s      0.011w    184 calls
| | bMatrix pseudoinverse           :      0.000u      0.000s      0.005w    184 calls
| | New vector                      :      0.000u      0.000s      0.008w    184 calls
HF: Form C                          :      0.000u      0.000s      0.134w    187 calls
Grad: V T Perturb                   :      0.000u      0.000s      1.357w     24 calls
Grad: S                             :      0.000u      0.000s      0.003w     24 calls
Grad: JK                            :      0.000u      0.000s      1.446w     24 calls
| JKGrad: Amn                       :      0.000u      0.000s      0.464w     24 calls
| | Libint2ERI::Libint2ERI          :      0.000u      0.000s      0.181w     48 calls
| JKGrad: Awmn                      :      0.000u      0.000s      0.000w     24 calls
| JKGrad: AB                        :      0.000u      0.000s      0.201w     24 calls
| | Libint2ERI::Libint2ERI          :      0.000u      0.000s      0.002w     48 calls
| JKGrad: UV                        :      0.000u      0.000s      0.007w     24 calls
| JKGrad: ABx                       :      0.000u      0.000s      0.070w     24 calls
| | Libint2ERI::Libint2ERI          :      0.000u      0.000s      0.002w     48 calls
| JKGrad: Amnx                      :      0.000u      0.000s      0.615w     24 calls
| | Libint2ERI::Libint2ERI          :      0.000u      0.000s      0.190w     48 calls
Grad: XC                            :      0.000u      0.000s      0.000w     24 calls

**************************************************************************************

Host: DESKTOP-NQSA13R

Timers On : Wed Jul 20 14:09:41 2022
Timers Off: Wed Jul 20 14:09:59 2022

Wall Time:       17.70 seconds

                                                       Time (seconds)
Module                                       User      System        Wall        Calls
DFH: sparsity prep                  :      0.000u      0.000s      0.180w     24 calls
Libint2ERI::Libint2ERI              :      0.000u      0.000s      0.647w    288 calls
DFH: initialize()                   :      0.000u      0.000s      0.552w     24 calls
DFH: AO Construction                :      0.000u      0.000s      0.125w     24 calls
DFH: AO-Met. Contraction            :      0.000u      0.000s      0.027w     24 calls
HF: Form core H                     :      0.000u      0.000s      0.230w     24 calls
HF: Form S/X                        :      0.000u      0.000s      0.018w     24 calls
HF: Guess                           :      0.000u      0.000s      0.779w     24 calls
SAD Guess                           :      0.000u      0.000s      0.752w     21 calls
HF: Form G                          :      0.000u      0.000s      0.092w    208 calls
JK: D                               :      0.000u      0.000s      0.001w    208 calls
JK: USO2AO                          :      0.000u      0.000s      0.001w    208 calls
JK: JK                              :      0.000u      0.000s      0.085w    208 calls
DFH: compute_JK()                   :      0.000u      0.000s      0.085w    208 calls
DFH: Grabbing AOs                   :      0.000u      0.000s      0.000w    208 calls
DFH: compute_J                      :      0.000u      0.000s      0.031w    208 calls
DFH: compute_K                      :      0.000u      0.000s      0.041w    208 calls
JK: AO2USO                          :      0.000u      0.000s      0.000w    208 calls
HF: Form F                          :      0.000u      0.000s      0.006w    208 calls
HF: Form D                          :      0.000u      0.000s      0.001w    208 calls
HF: DIIS                            :      0.000u      0.000s      0.678w    187 calls
DIISManager::add_entry              :      0.000u      0.000s      0.342w    184 calls
DIISManager::extrapolate            :      0.000u      0.000s      0.028w    184 calls
bMatrix setup                       :      0.000u      0.000s      0.012w    184 calls
bMatrix pseudoinverse               :      0.000u      0.000s      0.006w    184 calls
New vector                          :      0.000u      0.000s      0.008w    184 calls
HF: Form C                          :      0.000u      0.000s      0.145w    187 calls
Grad: V T Perturb                   :      0.000u      0.000s      1.537w     24 calls
Grad: S                             :      0.000u      0.000s      0.006w     24 calls
Grad: JK                            :      0.000u      0.000s      1.726w     24 calls
JKGrad: Amn                         :      0.000u      0.000s      0.626w     24 calls
JKGrad: Awmn                        :      0.000u      0.000s      0.000w     24 calls
JKGrad: AB                          :      0.000u      0.000s      0.201w     24 calls
JKGrad: UV                          :      0.000u      0.000s      0.008w     24 calls
JKGrad: ABx                         :      0.000u      0.000s      0.078w     24 calls
JKGrad: Amnx                        :      0.000u      0.000s      0.677w     24 calls
Grad: XC                            :      0.000u      0.000s      0.000w     24 calls

--------------------------------------------------------------------------------------
DFH: sparsity prep                  :      0.000u      0.000s      0.180w     24 calls
| Libint2ERI::Libint2ERI            :      0.000u      0.000s      0.127w     24 calls
DFH: initialize()                   :      0.000u      0.000s      0.552w     24 calls
| Libint2ERI::Libint2ERI            :      0.000u      0.000s      0.104w     72 calls
| DFH: AO Construction              :      0.000u      0.000s      0.125w     24 calls
| DFH: AO-Met. Contraction          :      0.000u      0.000s      0.027w     24 calls
HF: Form core H                     :      0.000u      0.000s      0.230w     24 calls
HF: Form S/X                        :      0.000u      0.000s      0.018w     24 calls
HF: Guess                           :      0.000u      0.000s      0.779w     24 calls
| SAD Guess                         :      0.000u      0.000s      0.752w     21 calls
HF: Form G                          :      0.000u      0.000s      0.092w    208 calls
| JK: D                             :      0.000u      0.000s      0.001w    208 calls
| JK: USO2AO                        :      0.000u      0.000s      0.001w    208 calls
| JK: JK                            :      0.000u      0.000s      0.085w    208 calls
| | DFH: compute_JK()               :      0.000u      0.000s      0.085w    208 calls
| | | DFH: Grabbing AOs             :      0.000u      0.000s      0.000w    208 calls
| | | DFH: compute_J                :      0.000u      0.000s      0.031w    208 calls
| | | DFH: compute_K                :      0.000u      0.000s      0.041w    208 calls
| JK: AO2USO                        :      0.000u      0.000s      0.000w    208 calls
HF: Form F                          :      0.000u      0.000s      0.006w    208 calls
HF: Form D                          :      0.000u      0.000s      0.001w    208 calls
HF: DIIS                            :      0.000u      0.000s      0.678w    187 calls
| DIISManager::add_entry            :      0.000u      0.000s      0.342w    184 calls
| DIISManager::extrapolate          :      0.000u      0.000s      0.028w    184 calls
| | bMatrix setup                   :      0.000u      0.000s      0.012w    184 calls
| | bMatrix pseudoinverse           :      0.000u      0.000s      0.006w    184 calls
| | New vector                      :      0.000u      0.000s      0.008w    184 calls
HF: Form C                          :      0.000u      0.000s      0.145w    187 calls
Grad: V T Perturb                   :      0.000u      0.000s      1.537w     24 calls
Grad: S                             :      0.000u      0.000s      0.006w     24 calls
Grad: JK                            :      0.000u      0.000s      1.726w     24 calls
| JKGrad: Amn                       :      0.000u      0.000s      0.626w     24 calls
| | Libint2ERI::Libint2ERI          :      0.000u      0.000s      0.204w     48 calls
| JKGrad: Awmn                      :      0.000u      0.000s      0.000w     24 calls
| JKGrad: AB                        :      0.000u      0.000s      0.201w     24 calls
| | Libint2ERI::Libint2ERI          :      0.000u      0.000s      0.002w     48 calls
| JKGrad: UV                        :      0.000u      0.000s      0.008w     24 calls
| JKGrad: ABx                       :      0.000u      0.000s      0.078w     24 calls
| | Libint2ERI::Libint2ERI          :      0.000u      0.000s      0.002w     48 calls
| JKGrad: Amnx                      :      0.000u      0.000s      0.677w     24 calls
| | Libint2ERI::Libint2ERI          :      0.000u      0.000s      0.207w     48 calls
Grad: XC                            :      0.000u      0.000s      0.000w     24 calls

**************************************************************************************

Host: DESKTOP-NQSA13R

Timers On : Wed Jul 20 14:10:36 2022
Timers Off: Wed Jul 20 14:10:53 2022

Wall Time:       16.44 seconds

                                                       Time (seconds)
Module                                       User      System        Wall        Calls
DFH: sparsity prep                  :      0.000u      0.000s      0.165w     24 calls
Libint2ERI::Libint2ERI              :      0.000u      0.000s      0.605w    288 calls
DFH: initialize()                   :      0.000u      0.000s      0.549w     24 calls
DFH: AO Construction                :      0.000u      0.000s      0.119w     24 calls
DFH: AO-Met. Contraction            :      0.000u      0.000s      0.032w     24 calls
HF: Form core H                     :      0.000u      0.000s      0.186w     24 calls
HF: Form S/X                        :      0.000u      0.000s      0.008w     24 calls
HF: Guess                           :      0.000u      0.000s      0.732w     24 calls
SAD Guess                           :      0.000u      0.000s      0.707w     21 calls
HF: Form G                          :      0.000u      0.000s      0.082w    208 calls
JK: D                               :      0.000u      0.000s      0.001w    208 calls
JK: USO2AO                          :      0.000u      0.000s      0.001w    208 calls
JK: JK                              :      0.000u      0.000s      0.076w    208 calls
DFH: compute_JK()                   :      0.000u      0.000s      0.076w    208 calls
DFH: Grabbing AOs                   :      0.000u      0.000s      0.000w    208 calls
DFH: compute_J                      :      0.000u      0.000s      0.030w    208 calls
DFH: compute_K                      :      0.000u      0.000s      0.036w    208 calls
JK: AO2USO                          :      0.000u      0.000s      0.000w    208 calls
HF: Form F                          :      0.000u      0.000s      0.003w    208 calls
HF: Form D                          :      0.000u      0.000s      0.001w    208 calls
HF: DIIS                            :      0.000u      0.000s      0.410w    187 calls
DIISManager::add_entry              :      0.000u      0.000s      0.103w    184 calls
DIISManager::extrapolate            :      0.000u      0.000s      0.028w    184 calls
bMatrix setup                       :      0.000u      0.000s      0.012w    184 calls
bMatrix pseudoinverse               :      0.000u      0.000s      0.006w    184 calls
New vector                          :      0.000u      0.000s      0.009w    184 calls
HF: Form C                          :      0.000u      0.000s      0.140w    187 calls
Grad: V T Perturb                   :      0.000u      0.000s      1.386w     24 calls
Grad: S                             :      0.000u      0.000s      0.004w     24 calls
Grad: JK                            :      0.000u      0.000s      1.682w     24 calls
JKGrad: Amn                         :      0.000u      0.000s      0.601w     24 calls
JKGrad: Awmn                        :      0.000u      0.000s      0.000w     24 calls
JKGrad: AB                          :      0.000u      0.000s      0.205w     24 calls
JKGrad: UV                          :      0.000u      0.000s      0.010w     24 calls
JKGrad: ABx                         :      0.000u      0.000s      0.073w     24 calls
JKGrad: Amnx                        :      0.000u      0.000s      0.689w     24 calls
Grad: XC                            :      0.000u      0.000s      0.000w     24 calls

--------------------------------------------------------------------------------------
DFH: sparsity prep                  :      0.000u      0.000s      0.165w     24 calls
| Libint2ERI::Libint2ERI            :      0.000u      0.000s      0.110w     24 calls
DFH: initialize()                   :      0.000u      0.000s      0.549w     24 calls
| Libint2ERI::Libint2ERI            :      0.000u      0.000s      0.098w     72 calls
| DFH: AO Construction              :      0.000u      0.000s      0.119w     24 calls
| DFH: AO-Met. Contraction          :      0.000u      0.000s      0.032w     24 calls
HF: Form core H                     :      0.000u      0.000s      0.186w     24 calls
HF: Form S/X                        :      0.000u      0.000s      0.008w     24 calls
HF: Guess                           :      0.000u      0.000s      0.732w     24 calls
| SAD Guess                         :      0.000u      0.000s      0.707w     21 calls
HF: Form G                          :      0.000u      0.000s      0.082w    208 calls
| JK: D                             :      0.000u      0.000s      0.001w    208 calls
| JK: USO2AO                        :      0.000u      0.000s      0.001w    208 calls
| JK: JK                            :      0.000u      0.000s      0.076w    208 calls
| | DFH: compute_JK()               :      0.000u      0.000s      0.076w    208 calls
| | | DFH: Grabbing AOs             :      0.000u      0.000s      0.000w    208 calls
| | | DFH: compute_J                :      0.000u      0.000s      0.030w    208 calls
| | | DFH: compute_K                :      0.000u      0.000s      0.036w    208 calls
| JK: AO2USO                        :      0.000u      0.000s      0.000w    208 calls
HF: Form F                          :      0.000u      0.000s      0.003w    208 calls
HF: Form D                          :      0.000u      0.000s      0.001w    208 calls
HF: DIIS                            :      0.000u      0.000s      0.410w    187 calls
| DIISManager::add_entry            :      0.000u      0.000s      0.103w    184 calls
| DIISManager::extrapolate          :      0.000u      0.000s      0.028w    184 calls
| | bMatrix setup                   :      0.000u      0.000s      0.012w    184 calls
| | bMatrix pseudoinverse           :      0.000u      0.000s      0.006w    184 calls
| | New vector                      :      0.000u      0.000s      0.009w    184 calls
HF: Form C                          :      0.000u      0.000s      0.140w    187 calls
Grad: V T Perturb                   :      0.000u      0.000s      1.386w     24 calls
Grad: S                             :      0.000u      0.000s      0.004w     24 calls
Grad: JK                            :      0.000u      0.000s      1.682w     24 calls
| JKGrad: Amn                       :      0.000u      0.000s      0.601w     24 calls
| | Libint2ERI::Libint2ERI          :      0.000u      0.000s      0.194w     48 calls
| JKGrad: Awmn                      :      0.000u      0.000s      0.000w     24 calls
| JKGrad: AB                        :      0.000u      0.000s      0.205w     24 calls
| | Libint2ERI::Libint2ERI          :      0.000u      0.000s      0.002w     48 calls
| JKGrad: UV                        :      0.000u      0.000s      0.010w     24 calls
| JKGrad: ABx                       :      0.000u      0.000s      0.073w     24 calls
| | Libint2ERI::Libint2ERI          :      0.000u      0.000s      0.002w     48 calls
| JKGrad: Amnx                      :      0.000u      0.000s      0.689w     24 calls
| | Libint2ERI::Libint2ERI          :      0.000u      0.000s      0.198w     48 calls
Grad: XC                            :      0.000u      0.000s      0.000w     24 calls

**************************************************************************************

Host: DESKTOP-NQSA13R

Timers On : Wed Jul 20 14:11:18 2022
Timers Off: Wed Jul 20 14:11:33 2022

Wall Time:       15.02 seconds

                                                       Time (seconds)
Module                                       User      System        Wall        Calls
DFH: sparsity prep                  :      0.000u      0.000s      0.143w     24 calls
Libint2ERI::Libint2ERI              :      0.000u      0.000s      0.572w    288 calls
DFH: initialize()                   :      0.000u      0.000s      0.473w     24 calls
DFH: AO Construction                :      0.000u      0.000s      0.098w     24 calls
DFH: AO-Met. Contraction            :      0.000u      0.000s      0.023w     24 calls
HF: Form core H                     :      0.000u      0.000s      0.208w     24 calls
HF: Form S/X                        :      0.000u      0.000s      0.009w     24 calls
HF: Guess                           :      0.000u      0.000s      0.676w     24 calls
SAD Guess                           :      0.000u      0.000s      0.652w     21 calls
HF: Form G                          :      0.000u      0.000s      0.075w    208 calls
JK: D                               :      0.000u      0.000s      0.001w    208 calls
JK: USO2AO                          :      0.000u      0.000s      0.000w    208 calls
JK: JK                              :      0.000u      0.000s      0.069w    208 calls
DFH: compute_JK()                   :      0.000u      0.000s      0.069w    208 calls
DFH: Grabbing AOs                   :      0.000u      0.000s      0.000w    208 calls
DFH: compute_J                      :      0.000u      0.000s      0.029w    208 calls
DFH: compute_K                      :      0.000u      0.000s      0.031w    208 calls
JK: AO2USO                          :      0.000u      0.000s      0.000w    208 calls
HF: Form F                          :      0.000u      0.000s      0.002w    208 calls
HF: Form D                          :      0.000u      0.000s      0.001w    208 calls
HF: DIIS                            :      0.000u      0.000s      0.355w    187 calls
DIISManager::add_entry              :      0.000u      0.000s      0.081w    184 calls
DIISManager::extrapolate            :      0.000u      0.000s      0.025w    184 calls
bMatrix setup                       :      0.000u      0.000s      0.011w    184 calls
bMatrix pseudoinverse               :      0.000u      0.000s      0.005w    184 calls
New vector                          :      0.000u      0.000s      0.008w    184 calls
HF: Form C                          :      0.000u      0.000s      0.139w    187 calls
Grad: V T Perturb                   :      0.000u      0.000s      1.396w     24 calls
Grad: S                             :      0.000u      0.000s      0.012w     24 calls
Grad: JK                            :      0.000u      0.000s      1.340w     24 calls
JKGrad: Amn                         :      0.000u      0.000s      0.392w     24 calls
JKGrad: Awmn                        :      0.000u      0.000s      0.000w     24 calls
JKGrad: AB                          :      0.000u      0.000s      0.195w     24 calls
JKGrad: UV                          :      0.000u      0.000s      0.010w     24 calls
JKGrad: ABx                         :      0.000u      0.000s      0.069w     24 calls
JKGrad: Amnx                        :      0.000u      0.000s      0.576w     24 calls
Grad: XC                            :      0.000u      0.000s      0.000w     24 calls

--------------------------------------------------------------------------------------
DFH: sparsity prep                  :      0.000u      0.000s      0.143w     24 calls
| Libint2ERI::Libint2ERI            :      0.000u      0.000s      0.096w     24 calls
DFH: initialize()                   :      0.000u      0.000s      0.473w     24 calls
| Libint2ERI::Libint2ERI            :      0.000u      0.000s      0.101w     72 calls
| DFH: AO Construction              :      0.000u      0.000s      0.098w     24 calls
| DFH: AO-Met. Contraction          :      0.000u      0.000s      0.023w     24 calls
HF: Form core H                     :      0.000u      0.000s      0.208w     24 calls
HF: Form S/X                        :      0.000u      0.000s      0.009w     24 calls
HF: Guess                           :      0.000u      0.000s      0.676w     24 calls
| SAD Guess                         :      0.000u      0.000s      0.652w     21 calls
HF: Form G                          :      0.000u      0.000s      0.075w    208 calls
| JK: D                             :      0.000u      0.000s      0.001w    208 calls
| JK: USO2AO                        :      0.000u      0.000s      0.000w    208 calls
| JK: JK                            :      0.000u      0.000s      0.069w    208 calls
| | DFH: compute_JK()               :      0.000u      0.000s      0.069w    208 calls
| | | DFH: Grabbing AOs             :      0.000u      0.000s      0.000w    208 calls
| | | DFH: compute_J                :      0.000u      0.000s      0.029w    208 calls
| | | DFH: compute_K                :      0.000u      0.000s      0.031w    208 calls
| JK: AO2USO                        :      0.000u      0.000s      0.000w    208 calls
HF: Form F                          :      0.000u      0.000s      0.002w    208 calls
HF: Form D                          :      0.000u      0.000s      0.001w    208 calls
HF: DIIS                            :      0.000u      0.000s      0.355w    187 calls
| DIISManager::add_entry            :      0.000u      0.000s      0.081w    184 calls
| DIISManager::extrapolate          :      0.000u      0.000s      0.025w    184 calls
| | bMatrix setup                   :      0.000u      0.000s      0.011w    184 calls
| | bMatrix pseudoinverse           :      0.000u      0.000s      0.005w    184 calls
| | New vector                      :      0.000u      0.000s      0.008w    184 calls
HF: Form C                          :      0.000u      0.000s      0.139w    187 calls
Grad: V T Perturb                   :      0.000u      0.000s      1.396w     24 calls
Grad: S                             :      0.000u      0.000s      0.012w     24 calls
Grad: JK                            :      0.000u      0.000s      1.340w     24 calls
| JKGrad: Amn                       :      0.000u      0.000s      0.392w     24 calls
| | Libint2ERI::Libint2ERI          :      0.000u      0.000s      0.177w     48 calls
| JKGrad: Awmn                      :      0.000u      0.000s      0.000w     24 calls
| JKGrad: AB                        :      0.000u      0.000s      0.195w     24 calls
| | Libint2ERI::Libint2ERI          :      0.000u      0.000s      0.002w     48 calls
| JKGrad: UV                        :      0.000u      0.000s      0.010w     24 calls
| JKGrad: ABx                       :      0.000u      0.000s      0.069w     24 calls
| | Libint2ERI::Libint2ERI          :      0.000u      0.000s      0.002w     48 calls
| JKGrad: Amnx                      :      0.000u      0.000s      0.576w     24 calls
| | Libint2ERI::Libint2ERI          :      0.000u      0.000s      0.193w     48 calls
Grad: XC                            :      0.000u      0.000s      0.000w     24 calls

**************************************************************************************

Host: DESKTOP-NQSA13R

Timers On : Wed Jul 20 14:14:09 2022
Timers Off: Wed Jul 20 14:14:24 2022

Wall Time:       15.50 seconds

                                                       Time (seconds)
Module                                       User      System        Wall        Calls
DFH: sparsity prep                  :      0.000u      0.000s      0.147w     24 calls
Libint2ERI::Libint2ERI              :      0.000u      0.000s      0.552w    288 calls
DFH: initialize()                   :      0.000u      0.000s      0.480w     24 calls
DFH: AO Construction                :      0.000u      0.000s      0.104w     24 calls
DFH: AO-Met. Contraction            :      0.000u      0.000s      0.030w     24 calls
HF: Form core H                     :      0.000u      0.000s      0.186w     24 calls
HF: Form S/X                        :      0.000u      0.000s      0.010w     24 calls
HF: Guess                           :      0.000u      0.000s      0.712w     24 calls
SAD Guess                           :      0.000u      0.000s      0.686w     21 calls
HF: Form G                          :      0.000u      0.000s      0.076w    208 calls
JK: D                               :      0.000u      0.000s      0.001w    208 calls
JK: USO2AO                          :      0.000u      0.000s      0.001w    208 calls
JK: JK                              :      0.000u      0.000s      0.070w    208 calls
DFH: compute_JK()                   :      0.000u      0.000s      0.070w    208 calls
DFH: Grabbing AOs                   :      0.000u      0.000s      0.000w    208 calls
DFH: compute_J                      :      0.000u      0.000s      0.028w    208 calls
DFH: compute_K                      :      0.000u      0.000s      0.033w    208 calls
JK: AO2USO                          :      0.000u      0.000s      0.000w    208 calls
HF: Form F                          :      0.000u      0.000s      0.002w    208 calls
HF: Form D                          :      0.000u      0.000s      0.001w    208 calls
HF: DIIS                            :      0.000u      0.000s      0.423w    187 calls
DIISManager::add_entry              :      0.000u      0.000s      0.116w    184 calls
DIISManager::extrapolate            :      0.000u      0.000s      0.027w    184 calls
bMatrix setup                       :      0.000u      0.000s      0.013w    184 calls
bMatrix pseudoinverse               :      0.000u      0.000s      0.006w    184 calls
New vector                          :      0.000u      0.000s      0.008w    184 calls
HF: Form C                          :      0.000u      0.000s      0.137w    187 calls
Grad: V T Perturb                   :      0.000u      0.000s      1.291w     24 calls
Grad: S                             :      0.000u      0.000s      0.003w     24 calls
Grad: JK                            :      0.000u      0.000s      1.514w     24 calls
JKGrad: Amn                         :      0.000u      0.000s      0.536w     24 calls
JKGrad: Awmn                        :      0.000u      0.000s      0.000w     24 calls
JKGrad: AB                          :      0.000u      0.000s      0.181w     24 calls
JKGrad: UV                          :      0.000u      0.000s      0.008w     24 calls
JKGrad: ABx                         :      0.000u      0.000s      0.067w     24 calls
JKGrad: Amnx                        :      0.000u      0.000s      0.619w     24 calls
Grad: XC                            :      0.000u      0.000s      0.000w     24 calls

--------------------------------------------------------------------------------------
DFH: sparsity prep                  :      0.000u      0.000s      0.147w     24 calls
| Libint2ERI::Libint2ERI            :      0.000u      0.000s      0.098w     24 calls
DFH: initialize()                   :      0.000u      0.000s      0.480w     24 calls
| Libint2ERI::Libint2ERI            :      0.000u      0.000s      0.086w     72 calls
| DFH: AO Construction              :      0.000u      0.000s      0.104w     24 calls
| DFH: AO-Met. Contraction          :      0.000u      0.000s      0.030w     24 calls
HF: Form core H                     :      0.000u      0.000s      0.186w     24 calls
HF: Form S/X                        :      0.000u      0.000s      0.010w     24 calls
HF: Guess                           :      0.000u      0.000s      0.712w     24 calls
| SAD Guess                         :      0.000u      0.000s      0.686w     21 calls
HF: Form G                          :      0.000u      0.000s      0.076w    208 calls
| JK: D                             :      0.000u      0.000s      0.001w    208 calls
| JK: USO2AO                        :      0.000u      0.000s      0.001w    208 calls
| JK: JK                            :      0.000u      0.000s      0.070w    208 calls
| | DFH: compute_JK()               :      0.000u      0.000s      0.070w    208 calls
| | | DFH: Grabbing AOs             :      0.000u      0.000s      0.000w    208 calls
| | | DFH: compute_J                :      0.000u      0.000s      0.028w    208 calls
| | | DFH: compute_K                :      0.000u      0.000s      0.033w    208 calls
| JK: AO2USO                        :      0.000u      0.000s      0.000w    208 calls
HF: Form F                          :      0.000u      0.000s      0.002w    208 calls
HF: Form D                          :      0.000u      0.000s      0.001w    208 calls
HF: DIIS                            :      0.000u      0.000s      0.423w    187 calls
| DIISManager::add_entry            :      0.000u      0.000s      0.116w    184 calls
| DIISManager::extrapolate          :      0.000u      0.000s      0.027w    184 calls
| | bMatrix setup                   :      0.000u      0.000s      0.013w    184 calls
| | bMatrix pseudoinverse           :      0.000u      0.000s      0.006w    184 calls
| | New vector                      :      0.000u      0.000s      0.008w    184 calls
HF: Form C                          :      0.000u      0.000s      0.137w    187 calls
Grad: V T Perturb                   :      0.000u      0.000s      1.291w     24 calls
Grad: S                             :      0.000u      0.000s      0.003w     24 calls
Grad: JK                            :      0.000u      0.000s      1.514w     24 calls
| JKGrad: Amn                       :      0.000u      0.000s      0.536w     24 calls
| | Libint2ERI::Libint2ERI          :      0.000u      0.000s      0.175w     48 calls
| JKGrad: Awmn                      :      0.000u      0.000s      0.000w     24 calls
| JKGrad: AB                        :      0.000u      0.000s      0.181w     24 calls
| | Libint2ERI::Libint2ERI          :      0.000u      0.000s      0.002w     48 calls
| JKGrad: UV                        :      0.000u      0.000s      0.008w     24 calls
| JKGrad: ABx                       :      0.000u      0.000s      0.067w     24 calls
| | Libint2ERI::Libint2ERI          :      0.000u      0.000s      0.002w     48 calls
| JKGrad: Amnx                      :      0.000u      0.000s      0.619w     24 calls
| | Libint2ERI::Libint2ERI          :      0.000u      0.000s      0.189w     48 calls
Grad: XC                            :      0.000u      0.000s      0.000w     24 calls

**************************************************************************************

Host: DESKTOP-NQSA13R

Timers On : Wed Jul 20 14:16:25 2022
Timers Off: Wed Jul 20 14:16:40 2022

Wall Time:       15.58 seconds

                                                       Time (seconds)
Module                                       User      System        Wall        Calls
DFH: sparsity prep                  :      0.000u      0.000s      0.152w     24 calls
Libint2ERI::Libint2ERI              :      0.000u      0.000s      0.555w    288 calls
DFH: initialize()                   :      0.000u      0.000s      0.491w     24 calls
DFH: AO Construction                :      0.000u      0.000s      0.115w     24 calls
DFH: AO-Met. Contraction            :      0.000u      0.000s      0.023w     24 calls
HF: Form core H                     :      0.000u      0.000s      0.263w     24 calls
HF: Form S/X                        :      0.000u      0.000s      0.008w     24 calls
HF: Guess                           :      0.000u      0.000s      0.674w     24 calls
SAD Guess                           :      0.000u      0.000s      0.649w     21 calls
HF: Form G                          :      0.000u      0.000s      0.078w    208 calls
JK: D                               :      0.000u      0.000s      0.001w    208 calls
JK: USO2AO                          :      0.000u      0.000s      0.000w    208 calls
JK: JK                              :      0.000u      0.000s      0.073w    208 calls
DFH: compute_JK()                   :      0.000u      0.000s      0.073w    208 calls
DFH: Grabbing AOs                   :      0.000u      0.000s      0.000w    208 calls
DFH: compute_J                      :      0.000u      0.000s      0.028w    208 calls
DFH: compute_K                      :      0.000u      0.000s      0.033w    208 calls
JK: AO2USO                          :      0.000u      0.000s      0.000w    208 calls
HF: Form F                          :      0.000u      0.000s      0.002w    208 calls
HF: Form D                          :      0.000u      0.000s      0.001w    208 calls
HF: DIIS                            :      0.000u      0.000s      0.381w    187 calls
DIISManager::add_entry              :      0.000u      0.000s      0.108w    184 calls
DIISManager::extrapolate            :      0.000u      0.000s      0.025w    184 calls
bMatrix setup                       :      0.000u      0.000s      0.011w    184 calls
bMatrix pseudoinverse               :      0.000u      0.000s      0.006w    184 calls
New vector                          :      0.000u      0.000s      0.008w    184 calls
HF: Form C                          :      0.000u      0.000s      0.123w    187 calls
Grad: V T Perturb                   :      0.000u      0.000s      1.245w     24 calls
Grad: S                             :      0.000u      0.000s      0.003w     24 calls
Grad: JK                            :      0.000u      0.000s      1.454w     24 calls
JKGrad: Amn                         :      0.000u      0.000s      0.508w     24 calls
JKGrad: Awmn                        :      0.000u      0.000s      0.000w     24 calls
JKGrad: AB                          :      0.000u      0.000s      0.178w     24 calls
JKGrad: UV                          :      0.000u      0.000s      0.008w     24 calls
JKGrad: ABx                         :      0.000u      0.000s      0.068w     24 calls
JKGrad: Amnx                        :      0.000u      0.000s      0.596w     24 calls
Grad: XC                            :      0.000u      0.000s      0.000w     24 calls

--------------------------------------------------------------------------------------
DFH: sparsity prep                  :      0.000u      0.000s      0.152w     24 calls
| Libint2ERI::Libint2ERI            :      0.000u      0.000s      0.101w     24 calls
DFH: initialize()                   :      0.000u      0.000s      0.491w     24 calls
| Libint2ERI::Libint2ERI            :      0.000u      0.000s      0.087w     72 calls
| DFH: AO Construction              :      0.000u      0.000s      0.115w     24 calls
| DFH: AO-Met. Contraction          :      0.000u      0.000s      0.023w     24 calls
HF: Form core H                     :      0.000u      0.000s      0.263w     24 calls
HF: Form S/X                        :      0.000u      0.000s      0.008w     24 calls
HF: Guess                           :      0.000u      0.000s      0.674w     24 calls
| SAD Guess                         :      0.000u      0.000s      0.649w     21 calls
HF: Form G                          :      0.000u      0.000s      0.078w    208 calls
| JK: D                             :      0.000u      0.000s      0.001w    208 calls
| JK: USO2AO                        :      0.000u      0.000s      0.000w    208 calls
| JK: JK                            :      0.000u      0.000s      0.073w    208 calls
| | DFH: compute_JK()               :      0.000u      0.000s      0.073w    208 calls
| | | DFH: Grabbing AOs             :      0.000u      0.000s      0.000w    208 calls
| | | DFH: compute_J                :      0.000u      0.000s      0.028w    208 calls
| | | DFH: compute_K                :      0.000u      0.000s      0.033w    208 calls
| JK: AO2USO                        :      0.000u      0.000s      0.000w    208 calls
HF: Form F                          :      0.000u      0.000s      0.002w    208 calls
HF: Form D                          :      0.000u      0.000s      0.001w    208 calls
HF: DIIS                            :      0.000u      0.000s      0.381w    187 calls
| DIISManager::add_entry            :      0.000u      0.000s      0.108w    184 calls
| DIISManager::extrapolate          :      0.000u      0.000s      0.025w    184 calls
| | bMatrix setup                   :      0.000u      0.000s      0.011w    184 calls
| | bMatrix pseudoinverse           :      0.000u      0.000s      0.006w    184 calls
| | New vector                      :      0.000u      0.000s      0.008w    184 calls
HF: Form C                          :      0.000u      0.000s      0.123w    187 calls
Grad: V T Perturb                   :      0.000u      0.000s      1.245w     24 calls
Grad: S                             :      0.000u      0.000s      0.003w     24 calls
Grad: JK                            :      0.000u      0.000s      1.454w     24 calls
| JKGrad: Amn                       :      0.000u      0.000s      0.508w     24 calls
| | Libint2ERI::Libint2ERI          :      0.000u      0.000s      0.183w     48 calls
| JKGrad: Awmn                      :      0.000u      0.000s      0.000w     24 calls
| JKGrad: AB                        :      0.000u      0.000s      0.178w     24 calls
| | Libint2ERI::Libint2ERI          :      0.000u      0.000s      0.002w     48 calls
| JKGrad: UV                        :      0.000u      0.000s      0.008w     24 calls
| JKGrad: ABx                       :      0.000u      0.000s      0.068w     24 calls
| | Libint2ERI::Libint2ERI          :      0.000u      0.000s      0.002w     48 calls
| JKGrad: Amnx                      :      0.000u      0.000s      0.596w     24 calls
| | Libint2ERI::Libint2ERI          :      0.000u      0.000s      0.180w     48 calls
Grad: XC                            :      0.000u      0.000s      0.000w     24 calls

**************************************************************************************

Host: DESKTOP-NQSA13R

Timers On : Wed Jul 20 14:21:14 2022
Timers Off: Wed Jul 20 14:21:29 2022

Wall Time:       15.05 seconds

                                                       Time (seconds)
Module                                       User      System        Wall        Calls
DFH: sparsity prep                  :      0.000u      0.000s      0.151w     24 calls
Libint2ERI::Libint2ERI              :      0.000u      0.000s      0.555w    288 calls
DFH: initialize()                   :      0.000u      0.000s      0.472w     24 calls
DFH: AO Construction                :      0.000u      0.000s      0.110w     24 calls
DFH: AO-Met. Contraction            :      0.000u      0.000s      0.023w     24 calls
HF: Form core H                     :      0.000u      0.000s      0.115w     24 calls
HF: Form S/X                        :      0.000u      0.000s      0.009w     24 calls
HF: Guess                           :      0.000u      0.000s      0.673w     24 calls
SAD Guess                           :      0.000u      0.000s      0.650w     21 calls
HF: Form G                          :      0.000u      0.000s      0.078w    208 calls
JK: D                               :      0.000u      0.000s      0.001w    208 calls
JK: USO2AO                          :      0.000u      0.000s      0.000w    208 calls
JK: JK                              :      0.000u      0.000s      0.073w    208 calls
DFH: compute_JK()                   :      0.000u      0.000s      0.072w    208 calls
DFH: Grabbing AOs                   :      0.000u      0.000s      0.000w    208 calls
DFH: compute_J                      :      0.000u      0.000s      0.029w    208 calls
DFH: compute_K                      :      0.000u      0.000s      0.034w    208 calls
JK: AO2USO                          :      0.000u      0.000s      0.000w    208 calls
HF: Form F                          :      0.000u      0.000s      0.002w    208 calls
HF: Form D                          :      0.000u      0.000s      0.001w    208 calls
HF: DIIS                            :      0.000u      0.000s      0.432w    187 calls
DIISManager::add_entry              :      0.000u      0.000s      0.157w    184 calls
DIISManager::extrapolate            :      0.000u      0.000s      0.025w    184 calls
bMatrix setup                       :      0.000u      0.000s      0.012w    184 calls
bMatrix pseudoinverse               :      0.000u      0.000s      0.006w    184 calls
New vector                          :      0.000u      0.000s      0.008w    184 calls
HF: Form C                          :      0.000u      0.000s      0.128w    187 calls
Grad: V T Perturb                   :      0.000u      0.000s      1.303w     24 calls
Grad: S                             :      0.000u      0.000s      0.003w     24 calls
Grad: JK                            :      0.000u      0.000s      1.517w     24 calls
JKGrad: Amn                         :      0.000u      0.000s      0.552w     24 calls
JKGrad: Awmn                        :      0.000u      0.000s      0.000w     24 calls
JKGrad: AB                          :      0.000u      0.000s      0.185w     24 calls
JKGrad: UV                          :      0.000u      0.000s      0.008w     24 calls
JKGrad: ABx                         :      0.000u      0.000s      0.071w     24 calls
JKGrad: Amnx                        :      0.000u      0.000s      0.598w     24 calls
Grad: XC                            :      0.000u      0.000s      0.000w     24 calls

--------------------------------------------------------------------------------------
DFH: sparsity prep                  :      0.000u      0.000s      0.151w     24 calls
| Libint2ERI::Libint2ERI            :      0.000u      0.000s      0.101w     24 calls
DFH: initialize()                   :      0.000u      0.000s      0.472w     24 calls
| Libint2ERI::Libint2ERI            :      0.000u      0.000s      0.087w     72 calls
| DFH: AO Construction              :      0.000u      0.000s      0.110w     24 calls
| DFH: AO-Met. Contraction          :      0.000u      0.000s      0.023w     24 calls
HF: Form core H                     :      0.000u      0.000s      0.115w     24 calls
HF: Form S/X                        :      0.000u      0.000s      0.009w     24 calls
HF: Guess                           :      0.000u      0.000s      0.673w     24 calls
| SAD Guess                         :      0.000u      0.000s      0.650w     21 calls
HF: Form G                          :      0.000u      0.000s      0.078w    208 calls
| JK: D                             :      0.000u      0.000s      0.001w    208 calls
| JK: USO2AO                        :      0.000u      0.000s      0.000w    208 calls
| JK: JK                            :      0.000u      0.000s      0.073w    208 calls
| | DFH: compute_JK()               :      0.000u      0.000s      0.072w    208 calls
| | | DFH: Grabbing AOs             :      0.000u      0.000s      0.000w    208 calls
| | | DFH: compute_J                :      0.000u      0.000s      0.029w    208 calls
| | | DFH: compute_K                :      0.000u      0.000s      0.034w    208 calls
| JK: AO2USO                        :      0.000u      0.000s      0.000w    208 calls
HF: Form F                          :      0.000u      0.000s      0.002w    208 calls
HF: Form D                          :      0.000u      0.000s      0.001w    208 calls
HF: DIIS                            :      0.000u      0.000s      0.432w    187 calls
| DIISManager::add_entry            :      0.000u      0.000s      0.157w    184 calls
| DIISManager::extrapolate          :      0.000u      0.000s      0.025w    184 calls
| | bMatrix setup                   :      0.000u      0.000s      0.012w    184 calls
| | bMatrix pseudoinverse           :      0.000u      0.000s      0.006w    184 calls
| | New vector                      :      0.000u      0.000s      0.008w    184 calls
HF: Form C                          :      0.000u      0.000s      0.128w    187 calls
Grad: V T Perturb                   :      0.000u      0.000s      1.303w     24 calls
Grad: S                             :      0.000u      0.000s      0.003w     24 calls
Grad: JK                            :      0.000u      0.000s      1.517w     24 calls
| JKGrad: Amn                       :      0.000u      0.000s      0.552w     24 calls
| | Libint2ERI::Libint2ERI          :      0.000u      0.000s      0.175w     48 calls
| JKGrad: Awmn                      :      0.000u      0.000s      0.000w     24 calls
| JKGrad: AB                        :      0.000u      0.000s      0.185w     24 calls
| | Libint2ERI::Libint2ERI          :      0.000u      0.000s      0.002w     48 calls
| JKGrad: UV                        :      0.000u      0.000s      0.008w     24 calls
| JKGrad: ABx                       :      0.000u      0.000s      0.071w     24 calls
| | Libint2ERI::Libint2ERI          :      0.000u      0.000s      0.002w     48 calls
| JKGrad: Amnx                      :      0.000u      0.000s      0.598w     24 calls
| | Libint2ERI::Libint2ERI          :      0.000u      0.000s      0.188w     48 calls
Grad: XC                            :      0.000u      0.000s      0.000w     24 calls

**************************************************************************************

Host: DESKTOP-NQSA13R

Timers On : Wed Jul 20 14:23:21 2022
Timers Off: Wed Jul 20 14:23:37 2022

Wall Time:       15.62 seconds

                                                       Time (seconds)
Module                                       User      System        Wall        Calls
DFH: sparsity prep                  :      0.000u      0.000s      0.158w     24 calls
Libint2ERI::Libint2ERI              :      0.000u      0.000s      0.567w    288 calls
DFH: initialize()                   :      0.000u      0.000s      0.496w     24 calls
DFH: AO Construction                :      0.000u      0.000s      0.116w     24 calls
DFH: AO-Met. Contraction            :      0.000u      0.000s      0.025w     24 calls
HF: Form core H                     :      0.000u      0.000s      0.217w     24 calls
HF: Form S/X                        :      0.000u      0.000s      0.008w     24 calls
HF: Guess                           :      0.000u      0.000s      0.687w     24 calls
SAD Guess                           :      0.000u      0.000s      0.662w     21 calls
HF: Form G                          :      0.000u      0.000s      0.077w    208 calls
JK: D                               :      0.000u      0.000s      0.001w    208 calls
JK: USO2AO                          :      0.000u      0.000s      0.000w    208 calls
JK: JK                              :      0.000u      0.000s      0.071w    208 calls
DFH: compute_JK()                   :      0.000u      0.000s      0.071w    208 calls
DFH: Grabbing AOs                   :      0.000u      0.000s      0.000w    208 calls
DFH: compute_J                      :      0.000u      0.000s      0.028w    208 calls
DFH: compute_K                      :      0.000u      0.000s      0.034w    208 calls
JK: AO2USO                          :      0.000u      0.000s      0.000w    208 calls
HF: Form F                          :      0.000u      0.000s      0.002w    208 calls
HF: Form D                          :      0.000u      0.000s      0.001w    208 calls
HF: DIIS                            :      0.000u      0.000s      0.410w    187 calls
DIISManager::add_entry              :      0.000u      0.000s      0.128w    184 calls
DIISManager::extrapolate            :      0.000u      0.000s      0.031w    184 calls
bMatrix setup                       :      0.000u      0.000s      0.016w    184 calls
bMatrix pseudoinverse               :      0.000u      0.000s      0.006w    184 calls
New vector                          :      0.000u      0.000s      0.008w    184 calls
HF: Form C                          :      0.000u      0.000s      0.130w    187 calls
Grad: V T Perturb                   :      0.000u      0.000s      1.244w     24 calls
Grad: S                             :      0.000u      0.000s      0.003w     24 calls
Grad: JK                            :      0.000u      0.000s      1.403w     24 calls
JKGrad: Amn                         :      0.000u      0.000s      0.445w     24 calls
JKGrad: Awmn                        :      0.000u      0.000s      0.000w     24 calls
JKGrad: AB                          :      0.000u      0.000s      0.182w     24 calls
JKGrad: UV                          :      0.000u      0.000s      0.010w     24 calls
JKGrad: ABx                         :      0.000u      0.000s      0.072w     24 calls
JKGrad: Amnx                        :      0.000u      0.000s      0.603w     24 calls
Grad: XC                            :      0.000u      0.000s      0.000w     24 calls

--------------------------------------------------------------------------------------
DFH: sparsity prep                  :      0.000u      0.000s      0.158w     24 calls
| Libint2ERI::Libint2ERI            :      0.000u      0.000s      0.107w     24 calls
DFH: initialize()                   :      0.000u      0.000s      0.496w     24 calls
| Libint2ERI::Libint2ERI            :      0.000u      0.000s      0.091w     72 calls
| DFH: AO Construction              :      0.000u      0.000s      0.116w     24 calls
| DFH: AO-Met. Contraction          :      0.000u      0.000s      0.025w     24 calls
HF: Form core H                     :      0.000u      0.000s      0.217w     24 calls
HF: Form S/X                        :      0.000u      0.000s      0.008w     24 calls
HF: Guess                           :      0.000u      0.000s      0.687w     24 calls
| SAD Guess                         :      0.000u      0.000s      0.662w     21 calls
HF: Form G                          :      0.000u      0.000s      0.077w    208 calls
| JK: D                             :      0.000u      0.000s      0.001w    208 calls
| JK: USO2AO                        :      0.000u      0.000s      0.000w    208 calls
| JK: JK                            :      0.000u      0.000s      0.071w    208 calls
| | DFH: compute_JK()               :      0.000u      0.000s      0.071w    208 calls
| | | DFH: Grabbing AOs             :      0.000u      0.000s      0.000w    208 calls
| | | DFH: compute_J                :      0.000u      0.000s      0.028w    208 calls
| | | DFH: compute_K                :      0.000u      0.000s      0.034w    208 calls
| JK: AO2USO                        :      0.000u      0.000s      0.000w    208 calls
HF: Form F                          :      0.000u      0.000s      0.002w    208 calls
HF: Form D                          :      0.000u      0.000s      0.001w    208 calls
HF: DIIS                            :      0.000u      0.000s      0.410w    187 calls
| DIISManager::add_entry            :      0.000u      0.000s      0.128w    184 calls
| DIISManager::extrapolate          :      0.000u      0.000s      0.031w    184 calls
| | bMatrix setup                   :      0.000u      0.000s      0.016w    184 calls
| | bMatrix pseudoinverse           :      0.000u      0.000s      0.006w    184 calls
| | New vector                      :      0.000u      0.000s      0.008w    184 calls
HF: Form C                          :      0.000u      0.000s      0.130w    187 calls
Grad: V T Perturb                   :      0.000u      0.000s      1.244w     24 calls
Grad: S                             :      0.000u      0.000s      0.003w     24 calls
Grad: JK                            :      0.000u      0.000s      1.403w     24 calls
| JKGrad: Amn                       :      0.000u      0.000s      0.445w     24 calls
| | Libint2ERI::Libint2ERI          :      0.000u      0.000s      0.178w     48 calls
| JKGrad: Awmn                      :      0.000u      0.000s      0.000w     24 calls
| JKGrad: AB                        :      0.000u      0.000s      0.182w     24 calls
| | Libint2ERI::Libint2ERI          :      0.000u      0.000s      0.002w     48 calls
| JKGrad: UV                        :      0.000u      0.000s      0.010w     24 calls
| JKGrad: ABx                       :      0.000u      0.000s      0.072w     24 calls
| | Libint2ERI::Libint2ERI          :      0.000u      0.000s      0.002w     48 calls
| JKGrad: Amnx                      :      0.000u      0.000s      0.603w     24 calls
| | Libint2ERI::Libint2ERI          :      0.000u      0.000s      0.187w     48 calls
Grad: XC                            :      0.000u      0.000s      0.000w     24 calls

**************************************************************************************

Host: DESKTOP-NQSA13R

Timers On : Wed Jul 20 14:25:05 2022
Timers Off: Wed Jul 20 14:25:21 2022

Wall Time:       15.97 seconds

                                                       Time (seconds)
Module                                       User      System        Wall        Calls
DFH: sparsity prep                  :      0.000u      0.000s      0.159w     24 calls
Libint2ERI::Libint2ERI              :      0.000u      0.000s      0.590w    288 calls
DFH: initialize()                   :      0.000u      0.000s      0.529w     24 calls
DFH: AO Construction                :      0.000u      0.000s      0.129w     24 calls
DFH: AO-Met. Contraction            :      0.000u      0.000s      0.024w     24 calls
HF: Form core H                     :      0.000u      0.000s      0.260w     24 calls
HF: Form S/X                        :      0.000u      0.000s      0.008w     24 calls
HF: Guess                           :      0.000u      0.000s      0.740w     24 calls
SAD Guess                           :      0.000u      0.000s      0.713w     21 calls
HF: Form G                          :      0.000u      0.000s      0.082w    208 calls
JK: D                               :      0.000u      0.000s      0.001w    208 calls
JK: USO2AO                          :      0.000u      0.000s      0.001w    208 calls
JK: JK                              :      0.000u      0.000s      0.076w    208 calls
DFH: compute_JK()                   :      0.000u      0.000s      0.075w    208 calls
DFH: Grabbing AOs                   :      0.000u      0.000s      0.000w    208 calls
DFH: compute_J                      :      0.000u      0.000s      0.031w    208 calls
DFH: compute_K                      :      0.000u      0.000s      0.034w    208 calls
JK: AO2USO                          :      0.000u      0.000s      0.000w    208 calls
HF: Form F                          :      0.000u      0.000s      0.002w    208 calls
HF: Form D                          :      0.000u      0.000s      0.001w    208 calls
HF: DIIS                            :      0.000u      0.000s      0.442w    187 calls
DIISManager::add_entry              :      0.000u      0.000s      0.157w    184 calls
DIISManager::extrapolate            :      0.000u      0.000s      0.027w    184 calls
bMatrix setup                       :      0.000u      0.000s      0.012w    184 calls
bMatrix pseudoinverse               :      0.000u      0.000s      0.006w    184 calls
New vector                          :      0.000u      0.000s      0.008w    184 calls
HF: Form C                          :      0.000u      0.000s      0.131w    187 calls
Grad: V T Perturb                   :      0.000u      0.000s      1.394w     24 calls
Grad: S                             :      0.000u      0.000s      0.005w     24 calls
Grad: JK                            :      0.000u      0.000s      1.574w     24 calls
JKGrad: Amn                         :      0.000u      0.000s      0.554w     24 calls
JKGrad: Awmn                        :      0.000u      0.000s      0.000w     24 calls
JKGrad: AB                          :      0.000u      0.000s      0.210w     24 calls
JKGrad: UV                          :      0.000u      0.000s      0.010w     24 calls
JKGrad: ABx                         :      0.000u      0.000s      0.071w     24 calls
JKGrad: Amnx                        :      0.000u      0.000s      0.635w     24 calls
Grad: XC                            :      0.000u      0.000s      0.000w     24 calls

--------------------------------------------------------------------------------------
DFH: sparsity prep                  :      0.000u      0.000s      0.159w     24 calls
| Libint2ERI::Libint2ERI            :      0.000u      0.000s      0.109w     24 calls
DFH: initialize()                   :      0.000u      0.000s      0.529w     24 calls
| Libint2ERI::Libint2ERI            :      0.000u      0.000s      0.093w     72 calls
| DFH: AO Construction              :      0.000u      0.000s      0.129w     24 calls
| DFH: AO-Met. Contraction          :      0.000u      0.000s      0.024w     24 calls
HF: Form core H                     :      0.000u      0.000s      0.260w     24 calls
HF: Form S/X                        :      0.000u      0.000s      0.008w     24 calls
HF: Guess                           :      0.000u      0.000s      0.740w     24 calls
| SAD Guess                         :      0.000u      0.000s      0.713w     21 calls
HF: Form G                          :      0.000u      0.000s      0.082w    208 calls
| JK: D                             :      0.000u      0.000s      0.001w    208 calls
| JK: USO2AO                        :      0.000u      0.000s      0.001w    208 calls
| JK: JK                            :      0.000u      0.000s      0.076w    208 calls
| | DFH: compute_JK()               :      0.000u      0.000s      0.075w    208 calls
| | | DFH: Grabbing AOs             :      0.000u      0.000s      0.000w    208 calls
| | | DFH: compute_J                :      0.000u      0.000s      0.031w    208 calls
| | | DFH: compute_K                :      0.000u      0.000s      0.034w    208 calls
| JK: AO2USO                        :      0.000u      0.000s      0.000w    208 calls
HF: Form F                          :      0.000u      0.000s      0.002w    208 calls
HF: Form D                          :      0.000u      0.000s      0.001w    208 calls
HF: DIIS                            :      0.000u      0.000s      0.442w    187 calls
| DIISManager::add_entry            :      0.000u      0.000s      0.157w    184 calls
| DIISManager::extrapolate          :      0.000u      0.000s      0.027w    184 calls
| | bMatrix setup                   :      0.000u      0.000s      0.012w    184 calls
| | bMatrix pseudoinverse           :      0.000u      0.000s      0.006w    184 calls
| | New vector                      :      0.000u      0.000s      0.008w    184 calls
HF: Form C                          :      0.000u      0.000s      0.131w    187 calls
Grad: V T Perturb                   :      0.000u      0.000s      1.394w     24 calls
Grad: S                             :      0.000u      0.000s      0.005w     24 calls
Grad: JK                            :      0.000u      0.000s      1.574w     24 calls
| JKGrad: Amn                       :      0.000u      0.000s      0.554w     24 calls
| | Libint2ERI::Libint2ERI          :      0.000u      0.000s      0.182w     48 calls
| JKGrad: Awmn                      :      0.000u      0.000s      0.000w     24 calls
[...]
HF: DIIS                            :      0.000u      0.000s      0.381w    187 calls
DIISManager::add_entry              :      0.000u      0.000s      0.097w    184 calls
DIISManager::extrapolate            :      0.000u      0.000s      0.025w    184 calls
bMatrix setup                       :      0.000u      0.000s      0.011w    184 calls
bMatrix pseudoinverse               :      0.000u      0.000s      0.005w    184 calls
New vector                          :      0.000u      0.000s      0.008w    184 calls
HF: Form C                          :      0.000u      0.000s      0.127w    187 calls
Grad: V T Perturb                   :      0.000u      0.000s      1.326w     24 calls
Grad: S                             :      0.000u      0.000s      0.003w     24 calls
Grad: JK                            :      0.000u      0.000s      1.393w     24 calls
JKGrad: Amn                         :      0.000u      0.000s      0.458w     24 calls
JKGrad: Awmn                        :      0.000u      0.000s      0.000w     24 calls
JKGrad: AB                          :      0.000u      0.000s      0.208w     24 calls
JKGrad: UV                          :      0.000u      0.000s      0.007w     24 calls
JKGrad: ABx                         :      0.000u      0.000s      0.066w     24 calls
JKGrad: Amnx                        :      0.000u      0.000s      0.553w     24 calls
Grad: XC                            :      0.000u      0.000s      0.000w     24 calls

--------------------------------------------------------------------------------------
DFH: sparsity prep                  :      0.000u      0.000s      0.148w     24 calls
| Libint2ERI::Libint2ERI            :      0.000u      0.000s      0.100w     24 calls
DFH: initialize()                   :      0.000u      0.000s      0.474w     24 calls
| Libint2ERI::Libint2ERI            :      0.000u      0.000s      0.087w     72 calls
| DFH: AO Construction              :      0.000u      0.000s      0.105w     24 calls
| DFH: AO-Met. Contraction          :      0.000u      0.000s      0.022w     24 calls
HF: Form core H                     :      0.000u      0.000s      0.206w     24 calls
HF: Form S/X                        :      0.000u      0.000s      0.008w     24 calls
HF: Guess                           :      0.000u      0.000s      0.660w     24 calls
| SAD Guess                         :      0.000u      0.000s      0.635w     21 calls
HF: Form G                          :      0.000u      0.000s      0.077w    208 calls
| JK: D                             :      0.000u      0.000s      0.001w    208 calls
| JK: USO2AO                        :      0.000u      0.000s      0.000w    208 calls
| JK: JK                            :      0.000u      0.000s      0.072w    208 calls
| | DFH: compute_JK()               :      0.000u      0.000s      0.071w    208 calls
| | | DFH: Grabbing AOs             :      0.000u      0.000s      0.000w    208 calls
| | | DFH: compute_J                :      0.000u      0.000s      0.028w    208 calls
| | | DFH: compute_K                :      0.000u      0.000s      0.033w    208 calls
| JK: AO2USO                        :      0.000u      0.000s      0.000w    208 calls
HF: Form F                          :      0.000u      0.000s      0.009w    208 calls
HF: Form D                          :      0.000u      0.000s      0.001w    208 calls
HF: DIIS                            :      0.000u      0.000s      0.381w    187 calls
| DIISManager::add_entry            :      0.000u      0.000s      0.097w    184 calls
| DIISManager::extrapolate          :      0.000u      0.000s      0.025w    184 calls
| | bMatrix setup                   :      0.000u      0.000s      0.011w    184 calls
| | bMatrix pseudoinverse           :      0.000u      0.000s      0.005w    184 calls
| | New vector                      :      0.000u      0.000s      0.008w    184 calls
HF: Form C                          :      0.000u      0.000s      0.127w    187 calls
Grad: V T Perturb                   :      0.000u      0.000s      1.326w     24 calls
Grad: S                             :      0.000u      0.000s      0.003w     24 calls
Grad: JK                            :      0.000u      0.000s      1.393w     24 calls
| JKGrad: Amn                       :      0.000u      0.000s      0.458w     24 calls
| | Libint2ERI::Libint2ERI          :      0.000u      0.000s      0.187w     48 calls
| JKGrad: Awmn                      :      0.000u      0.000s      0.000w     24 calls
| JKGrad: AB                        :      0.000u      0.000s      0.208w     24 calls
| | Libint2ERI::Libint2ERI          :      0.000u      0.000s      0.002w     48 calls
| JKGrad: UV                        :      0.000u      0.000s      0.007w     24 calls
| JKGrad: ABx                       :      0.000u      0.000s      0.066w     24 calls
| | Libint2ERI::Libint2ERI          :      0.000u      0.000s      0.002w     48 calls
| JKGrad: Amnx                      :      0.000u      0.000s      0.553w     24 calls
| | Libint2ERI::Libint2ERI          :      0.000u      0.000s      0.175w     48 calls
Grad: XC                            :      0.000u      0.000s      0.000w     24 calls

**************************************************************************************

Host: DESKTOP-NQSA13R

Timers On : Wed Jul 20 15:51:23 2022
Timers Off: Wed Jul 20 15:51:38 2022

Wall Time:       15.34 seconds

                                                       Time (seconds)
Module                                       User      System        Wall        Calls
DFH: sparsity prep                  :      0.000u      0.000s      0.177w     24 calls
Libint2ERI::Libint2ERI              :      0.000u      0.000s      0.573w    288 calls
DFH: initialize()                   :      0.000u      0.000s      0.488w     24 calls
DFH: AO Construction                :      0.000u      0.000s      0.110w     24 calls
DFH: AO-Met. Contraction            :      0.000u      0.000s      0.024w     24 calls
HF: Form core H                     :      0.000u      0.000s      0.121w     24 calls
HF: Form S/X                        :      0.000u      0.000s      0.008w     24 calls
HF: Guess                           :      0.000u      0.000s      0.722w     24 calls
SAD Guess                           :      0.000u      0.000s      0.698w     21 calls
HF: Form G                          :      0.000u      0.000s      0.082w    208 calls
JK: D                               :      0.000u      0.000s      0.001w    208 calls
JK: USO2AO                          :      0.000u      0.000s      0.001w    208 calls
JK: JK                              :      0.000u      0.000s      0.075w    208 calls
DFH: compute_JK()                   :      0.000u      0.000s      0.075w    208 calls
DFH: Grabbing AOs                   :      0.000u      0.000s      0.000w    208 calls
DFH: compute_J                      :      0.000u      0.000s      0.029w    208 calls
DFH: compute_K                      :      0.000u      0.000s      0.036w    208 calls
JK: AO2USO                          :      0.000u      0.000s      0.000w    208 calls
HF: Form F                          :      0.000u      0.000s      0.003w    208 calls
HF: Form D                          :      0.000u      0.000s      0.001w    208 calls
HF: DIIS                            :      0.000u      0.000s      0.337w    187 calls
DIISManager::add_entry              :      0.000u      0.000s      0.051w    184 calls
DIISManager::extrapolate            :      0.000u      0.000s      0.026w    184 calls
bMatrix setup                       :      0.000u      0.000s      0.012w    184 calls
bMatrix pseudoinverse               :      0.000u      0.000s      0.006w    184 calls
New vector                          :      0.000u      0.000s      0.008w    184 calls
HF: Form C                          :      0.000u      0.000s      0.136w    187 calls
Grad: V T Perturb                   :      0.000u      0.000s      1.308w     24 calls
Grad: S                             :      0.000u      0.000s      0.003w     24 calls
Grad: JK                            :      0.000u      0.000s      1.428w     24 calls
JKGrad: Amn                         :      0.000u      0.000s      0.436w     24 calls
JKGrad: Awmn                        :      0.000u      0.000s      0.000w     24 calls
JKGrad: AB                          :      0.000u      0.000s      0.182w     24 calls
JKGrad: UV                          :      0.000u      0.000s      0.009w     24 calls
JKGrad: ABx                         :      0.000u      0.000s      0.072w     24 calls
JKGrad: Amnx                        :      0.000u      0.000s      0.640w     24 calls
Grad: XC                            :      0.000u      0.000s      0.000w     24 calls

--------------------------------------------------------------------------------------
DFH: sparsity prep                  :      0.000u      0.000s      0.177w     24 calls
| Libint2ERI::Libint2ERI            :      0.000u      0.000s      0.101w     24 calls
DFH: initialize()                   :      0.000u      0.000s      0.488w     24 calls
| Libint2ERI::Libint2ERI            :      0.000u      0.000s      0.089w     72 calls
| DFH: AO Construction              :      0.000u      0.000s      0.110w     24 calls
| DFH: AO-Met. Contraction          :      0.000u      0.000s      0.024w     24 calls
HF: Form core H                     :      0.000u      0.000s      0.121w     24 calls
HF: Form S/X                        :      0.000u      0.000s      0.008w     24 calls
HF: Guess                           :      0.000u      0.000s      0.722w     24 calls
| SAD Guess                         :      0.000u      0.000s      0.698w     21 calls
HF: Form G                          :      0.000u      0.000s      0.082w    208 calls
| JK: D                             :      0.000u      0.000s      0.001w    208 calls
| JK: USO2AO                        :      0.000u      0.000s      0.001w    208 calls
| JK: JK                            :      0.000u      0.000s      0.075w    208 calls
| | DFH: compute_JK()               :      0.000u      0.000s      0.075w    208 calls
| | | DFH: Grabbing AOs             :      0.000u      0.000s      0.000w    208 calls
| | | DFH: compute_J                :      0.000u      0.000s      0.029w    208 calls
| | | DFH: compute_K                :      0.000u      0.000s      0.036w    208 calls
| JK: AO2USO                        :      0.000u      0.000s      0.000w    208 calls
HF: Form F                          :      0.000u      0.000s      0.003w    208 calls
HF: Form D                          :      0.000u      0.000s      0.001w    208 calls
HF: DIIS                            :      0.000u      0.000s      0.337w    187 calls
| DIISManager::add_entry            :      0.000u      0.000s      0.051w    184 calls
| DIISManager::extrapolate          :      0.000u      0.000s      0.026w    184 calls
| | bMatrix setup                   :      0.000u      0.000s      0.012w    184 calls
| | bMatrix pseudoinverse           :      0.000u      0.000s      0.006w    184 calls
| | New vector                      :      0.000u      0.000s      0.008w    184 calls
HF: Form C                          :      0.000u      0.000s      0.136w    187 calls
Grad: V T Perturb                   :      0.000u      0.000s      1.308w     24 calls
Grad: S                             :      0.000u      0.000s      0.003w     24 calls
Grad: JK                            :      0.000u      0.000s      1.428w     24 calls
| JKGrad: Amn                       :      0.000u      0.000s      0.436w     24 calls
| | Libint2ERI::Libint2ERI          :      0.000u      0.000s      0.193w     48 calls
| JKGrad: Awmn                      :      0.000u      0.000s      0.000w     24 calls
| JKGrad: AB                        :      0.000u      0.000s      0.182w     24 calls
| | Libint2ERI::Libint2ERI          :      0.000u      0.000s      0.002w     48 calls
| JKGrad: UV                        :      0.000u      0.000s      0.009w     24 calls
| JKGrad: ABx                       :      0.000u      0.000s      0.072w     24 calls
| | Libint2ERI::Libint2ERI          :      0.000u      0.000s      0.002w     48 calls
| JKGrad: Amnx                      :      0.000u      0.000s      0.640w     24 calls
| | Libint2ERI::Libint2ERI          :      0.000u      0.000s      0.185w     48 calls
Grad: XC                            :      0.000u      0.000s      0.000w     24 calls

**************************************************************************************

Host: DESKTOP-NQSA13R

Timers On : Wed Jul 20 15:57:12 2022
Timers Off: Wed Jul 20 15:57:27 2022

Wall Time:       14.86 seconds

                                                       Time (seconds)
Module                                       User      System        Wall        Calls
DFH: sparsity prep                  :      0.000u      0.000s      0.144w     24 calls
Libint2ERI::Libint2ERI              :      0.000u      0.000s      0.559w    288 calls
DFH: initialize()                   :      0.000u      0.000s      0.471w     24 calls
DFH: AO Construction                :      0.000u      0.000s      0.108w     24 calls
DFH: AO-Met. Contraction            :      0.000u      0.000s      0.023w     24 calls
HF: Form core H                     :      0.000u      0.000s      0.172w     24 calls
HF: Form S/X                        :      0.000u      0.000s      0.008w     24 calls
HF: Guess                           :      0.000u      0.000s      0.708w     24 calls
SAD Guess                           :      0.000u      0.000s      0.684w     21 calls
HF: Form G                          :      0.000u      0.000s      0.074w    208 calls
JK: D                               :      0.000u      0.000s      0.001w    208 calls
JK: USO2AO                          :      0.000u      0.000s      0.000w    208 calls
JK: JK                              :      0.000u      0.000s      0.069w    208 calls
DFH: compute_JK()                   :      0.000u      0.000s      0.069w    208 calls
DFH: Grabbing AOs                   :      0.000u      0.000s      0.000w    208 calls
DFH: compute_J                      :      0.000u      0.000s      0.027w    208 calls
DFH: compute_K                      :      0.000u      0.000s      0.033w    208 calls
JK: AO2USO                          :      0.000u      0.000s      0.000w    208 calls
HF: Form F                          :      0.000u      0.000s      0.002w    208 calls
HF: Form D                          :      0.000u      0.000s      0.001w    208 calls
HF: DIIS                            :      0.000u      0.000s      0.407w    187 calls
DIISManager::add_entry              :      0.000u      0.000s      0.125w    184 calls
DIISManager::extrapolate            :      0.000u      0.000s      0.026w    184 calls
bMatrix setup                       :      0.000u      0.000s      0.012w    184 calls
bMatrix pseudoinverse               :      0.000u      0.000s      0.006w    184 calls
New vector                          :      0.000u      0.000s      0.008w    184 calls
HF: Form C                          :      0.000u      0.000s      0.160w    187 calls
Grad: V T Perturb                   :      0.000u      0.000s      1.303w     24 calls
Grad: S                             :      0.000u      0.000s      0.003w     24 calls
Grad: JK                            :      0.000u      0.000s      1.360w     24 calls
JKGrad: Amn                         :      0.000u      0.000s      0.421w     24 calls
JKGrad: Awmn                        :      0.000u      0.000s      0.000w     24 calls
JKGrad: AB                          :      0.000u      0.000s      0.179w     24 calls
JKGrad: UV                          :      0.000u      0.000s      0.008w     24 calls
JKGrad: ABx                         :      0.000u      0.000s      0.068w     24 calls
JKGrad: Amnx                        :      0.000u      0.000s      0.589w     24 calls
Grad: XC                            :      0.000u      0.000s      0.000w     24 calls

--------------------------------------------------------------------------------------
DFH: sparsity prep                  :      0.000u      0.000s      0.144w     24 calls
| Libint2ERI::Libint2ERI            :      0.000u      0.000s      0.097w     24 calls
DFH: initialize()                   :      0.000u      0.000s      0.471w     24 calls
| Libint2ERI::Libint2ERI            :      0.000u      0.000s      0.085w     72 calls
| DFH: AO Construction              :      0.000u      0.000s      0.108w     24 calls
| DFH: AO-Met. Contraction          :      0.000u      0.000s      0.023w     24 calls
HF: Form core H                     :      0.000u      0.000s      0.172w     24 calls
HF: Form S/X                        :      0.000u      0.000s      0.008w     24 calls
HF: Guess                           :      0.000u      0.000s      0.708w     24 calls
| SAD Guess                         :      0.000u      0.000s      0.684w     21 calls
HF: Form G                          :      0.000u      0.000s      0.074w    208 calls
| JK: D                             :      0.000u      0.000s      0.001w    208 calls
| JK: USO2AO                        :      0.000u      0.000s      0.000w    208 calls
| JK: JK                            :      0.000u      0.000s      0.069w    208 calls
| | DFH: compute_JK()               :      0.000u      0.000s      0.069w    208 calls
| | | DFH: Grabbing AOs             :      0.000u      0.000s      0.000w    208 calls
| | | DFH: compute_J                :      0.000u      0.000s      0.027w    208 calls
| | | DFH: compute_K                :      0.000u      0.000s      0.033w    208 calls
| JK: AO2USO                        :      0.000u      0.000s      0.000w    208 calls
HF: Form F                          :      0.000u      0.000s      0.002w    208 calls
HF: Form D                          :      0.000u      0.000s      0.001w    208 calls
HF: DIIS                            :      0.000u      0.000s      0.407w    187 calls
| DIISManager::add_entry            :      0.000u      0.000s      0.125w    184 calls
| DIISManager::extrapolate          :      0.000u      0.000s      0.026w    184 calls
| | bMatrix setup                   :      0.000u      0.000s      0.012w    184 calls
| | bMatrix pseudoinverse           :      0.000u      0.000s      0.006w    184 calls
| | New vector                      :      0.000u      0.000s      0.008w    184 calls
HF: Form C                          :      0.000u      0.000s      0.160w    187 calls
Grad: V T Perturb                   :      0.000u      0.000s      1.303w     24 calls
Grad: S                             :      0.000u      0.000s      0.003w     24 calls
Grad: JK                            :      0.000u      0.000s      1.360w     24 calls
| JKGrad: Amn                       :      0.000u      0.000s      0.421w     24 calls
| | Libint2ERI::Libint2ERI          :      0.000u      0.000s      0.183w     48 calls
| JKGrad: Awmn                      :      0.000u      0.000s      0.000w     24 calls
| JKGrad: AB                        :      0.000u      0.000s      0.179w     24 calls
| | Libint2ERI::Libint2ERI          :      0.000u      0.000s      0.002w     48 calls
| JKGrad: UV                        :      0.000u      0.000s      0.008w     24 calls
| JKGrad: ABx                       :      0.000u      0.000s      0.068w     24 calls
| | Libint2ERI::Libint2ERI          :      0.000u      0.000s      0.002w     48 calls
| JKGrad: Amnx                      :      0.000u      0.000s      0.589w     24 calls
| | Libint2ERI::Libint2ERI          :      0.000u      0.000s      0.189w     48 calls
Grad: XC                            :      0.000u      0.000s      0.000w     24 calls

**************************************************************************************
