
Host: Charlies-MacBook-Air-2.local

Timers On : Wed Jul 20 13:50:36 2022
Timers Off: Wed Jul 20 13:50:43 2022

Wall Time:        7.22 seconds

                                                       Time (seconds)
Module                                       User      System        Wall        Calls
DFH: sparsity prep                  :      0.267u      0.000s      0.091w     24 calls
Libint2ERI::Libint2ERI              :      0.817u      0.033s      0.278w    288 calls
DFH: initialize()                   :      0.867u      0.017s      0.294w     24 calls
DFH: AO Construction                :      0.250u      0.000s      0.069w     24 calls
DFH: AO-Met. Contraction            :      0.067u      0.000s      0.025w     24 calls
HF: Form core H                     :      0.050u      0.000s      0.031w     24 calls
HF: Form S/X                        :      0.000u      0.000s      0.004w     24 calls
HF: Guess                           :      0.800u      0.133s      0.256w     24 calls
SAD Guess                           :      0.783u      0.133s      0.244w     21 calls
HF: Form G                          :      0.167u      0.000s      0.050w    208 calls
JK: D                               :      0.000u      0.000s      0.001w    208 calls
JK: USO2AO                          :      0.000u      0.000s      0.000w    208 calls
JK: JK                              :      0.167u      0.000s      0.046w    208 calls
DFH: compute_JK()                   :      0.167u      0.000s      0.046w    208 calls
DFH: Grabbing AOs                   :      0.000u      0.000s      0.000w    208 calls
DFH: compute_J                      :      0.033u      0.000s      0.006w    208 calls
DFH: compute_K                      :      0.100u      0.000s      0.036w    208 calls
JK: AO2USO                          :      0.000u      0.000s      0.000w    208 calls
HF: Form F                          :      0.000u      0.000s      0.001w    208 calls
HF: Form D                          :      0.000u      0.000s      0.001w    208 calls
HF: DIIS                            :      0.317u      0.017s      0.103w    187 calls
DIISManager::add_entry              :      0.017u      0.017s      0.010w    184 calls
DIISManager::extrapolate            :      0.000u      0.000s      0.008w    184 calls
bMatrix setup                       :      0.000u      0.000s      0.003w    184 calls
bMatrix pseudoinverse               :      0.000u      0.000s      0.002w    184 calls
New vector                          :      0.000u      0.000s      0.002w    184 calls
HF: Form C                          :      0.133u      0.000s      0.044w    187 calls
Grad: V T Perturb                   :      1.500u      0.067s      0.476w     24 calls
Grad: S                             :      0.017u      0.000s      0.003w     24 calls
Grad: JK                            :      1.983u      0.067s      0.642w     24 calls
JKGrad: Amn                         :      0.583u      0.000s      0.174w     24 calls
JKGrad: Awmn                        :      0.000u      0.000s      0.000w     24 calls
JKGrad: AB                          :      0.317u      0.000s      0.100w     24 calls
JKGrad: UV                          :      0.000u      0.000s      0.003w     24 calls
JKGrad: ABx                         :      0.150u      0.000s      0.037w     24 calls
JKGrad: Amnx                        :      0.900u      0.050s      0.300w     24 calls
Grad: XC                            :      0.000u      0.000s      0.000w     24 calls

--------------------------------------------------------------------------------------
DFH: sparsity prep                  :      0.267u      0.000s      0.091w     24 calls
| Libint2ERI::Libint2ERI            :      0.167u      0.000s      0.063w     24 calls
DFH: initialize()                   :      0.867u      0.017s      0.294w     24 calls
| Libint2ERI::Libint2ERI            :      0.117u      0.000s      0.041w     72 calls
| DFH: AO Construction              :      0.250u      0.000s      0.069w     24 calls
| DFH: AO-Met. Contraction          :      0.067u      0.000s      0.025w     24 calls
HF: Form core H                     :      0.050u      0.000s      0.031w     24 calls
HF: Form S/X                        :      0.000u      0.000s      0.004w     24 calls
HF: Guess                           :      0.800u      0.133s      0.256w     24 calls
| SAD Guess                         :      0.783u      0.133s      0.244w     21 calls
HF: Form G                          :      0.167u      0.000s      0.050w    208 calls
| JK: D                             :      0.000u      0.000s      0.001w    208 calls
| JK: USO2AO                        :      0.000u      0.000s      0.000w    208 calls
| JK: JK                            :      0.167u      0.000s      0.046w    208 calls
| | DFH: compute_JK()               :      0.167u      0.000s      0.046w    208 calls
| | | DFH: Grabbing AOs             :      0.000u      0.000s      0.000w    208 calls
| | | DFH: compute_J                :      0.033u      0.000s      0.006w    208 calls
| | | DFH: compute_K                :      0.100u      0.000s      0.036w    208 calls
| JK: AO2USO                        :      0.000u      0.000s      0.000w    208 calls
HF: Form F                          :      0.000u      0.000s      0.001w    208 calls
HF: Form D                          :      0.000u      0.000s      0.001w    208 calls
HF: DIIS                            :      0.317u      0.017s      0.103w    187 calls
| DIISManager::add_entry            :      0.017u      0.017s      0.010w    184 calls
| DIISManager::extrapolate          :      0.000u      0.000s      0.008w    184 calls
| | bMatrix setup                   :      0.000u      0.000s      0.003w    184 calls
| | bMatrix pseudoinverse           :      0.000u      0.000s      0.002w    184 calls
| | New vector                      :      0.000u      0.000s      0.002w    184 calls
HF: Form C                          :      0.133u      0.000s      0.044w    187 calls
Grad: V T Perturb                   :      1.500u      0.067s      0.476w     24 calls
Grad: S                             :      0.017u      0.000s      0.003w     24 calls
Grad: JK                            :      1.983u      0.067s      0.642w     24 calls
| JKGrad: Amn                       :      0.583u      0.000s      0.174w     24 calls
| | Libint2ERI::Libint2ERI          :      0.267u      0.000s      0.086w     48 calls
| JKGrad: Awmn                      :      0.000u      0.000s      0.000w     24 calls
| JKGrad: AB                        :      0.317u      0.000s      0.100w     24 calls
| | Libint2ERI::Libint2ERI          :      0.000u      0.000s      0.001w     48 calls
| JKGrad: UV                        :      0.000u      0.000s      0.003w     24 calls
| JKGrad: ABx                       :      0.150u      0.000s      0.037w     24 calls
| | Libint2ERI::Libint2ERI          :      0.000u      0.000s      0.001w     48 calls
| JKGrad: Amnx                      :      0.900u      0.050s      0.300w     24 calls
| | Libint2ERI::Libint2ERI          :      0.267u      0.033s      0.087w     48 calls
Grad: XC                            :      0.000u      0.000s      0.000w     24 calls

**************************************************************************************

Host: Charlies-MacBook-Air-2.local

Timers On : Wed Jul 20 13:58:07 2022
Timers Off: Wed Jul 20 13:58:14 2022

Wall Time:        7.07 seconds

                                                       Time (seconds)
Module                                       User      System        Wall        Calls
DFH: sparsity prep                  :      0.217u      0.000s      0.084w     24 calls
Libint2ERI::Libint2ERI              :      0.917u      0.000s      0.270w    288 calls
DFH: initialize()                   :      0.883u      0.017s      0.294w     24 calls
DFH: AO Construction                :      0.183u      0.000s      0.071w     24 calls
DFH: AO-Met. Contraction            :      0.100u      0.000s      0.025w     24 calls
HF: Form core H                     :      0.083u      0.000s      0.030w     24 calls
HF: Form S/X                        :      0.033u      0.000s      0.004w     24 calls
HF: Guess                           :      0.733u      0.017s      0.248w     24 calls
SAD Guess                           :      0.700u      0.017s      0.236w     21 calls
HF: Form G                          :      0.067u      0.000s      0.047w    208 calls
JK: D                               :      0.000u      0.000s      0.001w    208 calls
JK: USO2AO                          :      0.000u      0.000s      0.000w    208 calls
JK: JK                              :      0.067u      0.000s      0.043w    208 calls
DFH: compute_JK()                   :      0.067u      0.000s      0.043w    208 calls
DFH: Grabbing AOs                   :      0.000u      0.000s      0.000w    208 calls
DFH: compute_J                      :      0.017u      0.000s      0.006w    208 calls
DFH: compute_K                      :      0.033u      0.000s      0.034w    208 calls
JK: AO2USO                          :      0.000u      0.000s      0.000w    208 calls
HF: Form F                          :      0.000u      0.000s      0.001w    208 calls
HF: Form D                          :      0.017u      0.000s      0.001w    208 calls
HF: DIIS                            :      0.233u      0.017s      0.101w    187 calls
DIISManager::add_entry              :      0.017u      0.017s      0.010w    184 calls
DIISManager::extrapolate            :      0.000u      0.000s      0.008w    184 calls
bMatrix setup                       :      0.000u      0.000s      0.003w    184 calls
bMatrix pseudoinverse               :      0.000u      0.000s      0.002w    184 calls
New vector                          :      0.000u      0.000s      0.002w    184 calls
HF: Form C                          :      0.217u      0.000s      0.043w    187 calls
Grad: V T Perturb                   :      1.533u      0.067s      0.467w     24 calls
Grad: S                             :      0.000u      0.000s      0.003w     24 calls
Grad: JK                            :      2.017u      0.183s      0.624w     24 calls
JKGrad: Amn                         :      0.600u      0.017s      0.172w     24 calls
JKGrad: Awmn                        :      0.000u      0.000s      0.000w     24 calls
JKGrad: AB                          :      0.333u      0.000s      0.100w     24 calls
JKGrad: UV                          :      0.017u      0.000s      0.003w     24 calls
JKGrad: ABx                         :      0.100u      0.000s      0.036w     24 calls
JKGrad: Amnx                        :      0.950u      0.000s      0.286w     24 calls
Grad: XC                            :      0.000u      0.000s      0.000w     24 calls

--------------------------------------------------------------------------------------
DFH: sparsity prep                  :      0.217u      0.000s      0.084w     24 calls
| Libint2ERI::Libint2ERI            :      0.200u      0.000s      0.056w     24 calls
DFH: initialize()                   :      0.883u      0.017s      0.294w     24 calls
| Libint2ERI::Libint2ERI            :      0.150u      0.000s      0.042w     72 calls
| DFH: AO Construction              :      0.183u      0.000s      0.071w     24 calls
| DFH: AO-Met. Contraction          :      0.100u      0.000s      0.025w     24 calls
HF: Form core H                     :      0.083u      0.000s      0.030w     24 calls
HF: Form S/X                        :      0.033u      0.000s      0.004w     24 calls
HF: Guess                           :      0.733u      0.017s      0.248w     24 calls
| SAD Guess                         :      0.700u      0.017s      0.236w     21 calls
HF: Form G                          :      0.067u      0.000s      0.047w    208 calls
| JK: D                             :      0.000u      0.000s      0.001w    208 calls
| JK: USO2AO                        :      0.000u      0.000s      0.000w    208 calls
| JK: JK                            :      0.067u      0.000s      0.043w    208 calls
| | DFH: compute_JK()               :      0.067u      0.000s      0.043w    208 calls
| | | DFH: Grabbing AOs             :      0.000u      0.000s      0.000w    208 calls
| | | DFH: compute_J                :      0.017u      0.000s      0.006w    208 calls
| | | DFH: compute_K                :      0.033u      0.000s      0.034w    208 calls
| JK: AO2USO                        :      0.000u      0.000s      0.000w    208 calls
HF: Form F                          :      0.000u      0.000s      0.001w    208 calls
HF: Form D                          :      0.017u      0.000s      0.001w    208 calls
HF: DIIS                            :      0.233u      0.017s      0.101w    187 calls
| DIISManager::add_entry            :      0.017u      0.017s      0.010w    184 calls
| DIISManager::extrapolate          :      0.000u      0.000s      0.008w    184 calls
| | bMatrix setup                   :      0.000u      0.000s      0.003w    184 calls
| | bMatrix pseudoinverse           :      0.000u      0.000s      0.002w    184 calls
| | New vector                      :      0.000u      0.000s      0.002w    184 calls
HF: Form C                          :      0.217u      0.000s      0.043w    187 calls
Grad: V T Perturb                   :      1.533u      0.067s      0.467w     24 calls
Grad: S                             :      0.000u      0.000s      0.003w     24 calls
Grad: JK                            :      2.017u      0.183s      0.624w     24 calls
| JKGrad: Amn                       :      0.600u      0.017s      0.172w     24 calls
| | Libint2ERI::Libint2ERI          :      0.267u      0.000s      0.085w     48 calls
| JKGrad: Awmn                      :      0.000u      0.000s      0.000w     24 calls
| JKGrad: AB                        :      0.333u      0.000s      0.100w     24 calls
| | Libint2ERI::Libint2ERI          :      0.000u      0.000s      0.001w     48 calls
| JKGrad: UV                        :      0.017u      0.000s      0.003w     24 calls
| JKGrad: ABx                       :      0.100u      0.000s      0.036w     24 calls
| | Libint2ERI::Libint2ERI          :      0.000u      0.000s      0.001w     48 calls
| JKGrad: Amnx                      :      0.950u      0.000s      0.286w     24 calls
| | Libint2ERI::Libint2ERI          :      0.300u      0.000s      0.085w     48 calls
Grad: XC                            :      0.000u      0.000s      0.000w     24 calls

**************************************************************************************

Host: Charlies-MacBook-Air-2.local

Timers On : Wed Jul 20 13:59:58 2022
Timers Off: Wed Jul 20 14:00:05 2022

Wall Time:        7.14 seconds

                                                       Time (seconds)
Module                                       User      System        Wall        Calls
DFH: sparsity prep                  :      0.217u      0.000s      0.088w     24 calls
Libint2ERI::Libint2ERI              :      0.800u      0.017s      0.278w    288 calls
DFH: initialize()                   :      0.900u      0.067s      0.298w     24 calls
DFH: AO Construction                :      0.117u      0.000s      0.070w     24 calls
DFH: AO-Met. Contraction            :      0.117u      0.000s      0.025w     24 calls
HF: Form core H                     :      0.117u      0.017s      0.030w     24 calls
HF: Form S/X                        :      0.017u      0.000s      0.004w     24 calls
HF: Guess                           :      0.733u      0.017s      0.253w     24 calls
SAD Guess                           :      0.717u      0.017s      0.241w     21 calls
HF: Form G                          :      0.200u      0.017s      0.048w    208 calls
JK: D                               :      0.000u      0.000s      0.001w    208 calls
JK: USO2AO                          :      0.017u      0.000s      0.000w    208 calls
JK: JK                              :      0.183u      0.000s      0.045w    208 calls
DFH: compute_JK()                   :      0.183u      0.000s      0.044w    208 calls
DFH: Grabbing AOs                   :      0.000u      0.000s      0.000w    208 calls
DFH: compute_J                      :      0.017u      0.000s      0.006w    208 calls
DFH: compute_K                      :      0.133u      0.000s      0.035w    208 calls
JK: AO2USO                          :      0.000u      0.000s      0.000w    208 calls
HF: Form F                          :      0.000u      0.000s      0.001w    208 calls
HF: Form D                          :      0.000u      0.000s      0.001w    208 calls
HF: DIIS                            :      0.367u      0.000s      0.101w    187 calls
DIISManager::add_entry              :      0.033u      0.000s      0.010w    184 calls
DIISManager::extrapolate            :      0.017u      0.000s      0.008w    184 calls
bMatrix setup                       :      0.000u      0.000s      0.003w    184 calls
bMatrix pseudoinverse               :      0.017u      0.000s      0.002w    184 calls
New vector                          :      0.000u      0.000s      0.002w    184 calls
HF: Form C                          :      0.100u      0.000s      0.043w    187 calls
Grad: V T Perturb                   :      1.567u      0.033s      0.475w     24 calls
Grad: S                             :      0.017u      0.000s      0.003w     24 calls
Grad: JK                            :      2.017u      0.083s      0.645w     24 calls
JKGrad: Amn                         :      0.583u      0.000s      0.174w     24 calls
JKGrad: Awmn                        :      0.000u      0.000s      0.000w     24 calls
JKGrad: AB                          :      0.300u      0.000s      0.101w     24 calls
JKGrad: UV                          :      0.000u      0.000s      0.003w     24 calls
JKGrad: ABx                         :      0.150u      0.000s      0.037w     24 calls
JKGrad: Amnx                        :      0.967u      0.017s      0.303w     24 calls
Grad: XC                            :      0.000u      0.000s      0.000w     24 calls

--------------------------------------------------------------------------------------
DFH: sparsity prep                  :      0.217u      0.000s      0.088w     24 calls
| Libint2ERI::Libint2ERI            :      0.100u      0.000s      0.060w     24 calls
DFH: initialize()                   :      0.900u      0.067s      0.298w     24 calls
| Libint2ERI::Libint2ERI            :      0.100u      0.000s      0.042w     72 calls
| DFH: AO Construction              :      0.117u      0.000s      0.070w     24 calls
| DFH: AO-Met. Contraction          :      0.117u      0.000s      0.025w     24 calls
HF: Form core H                     :      0.117u      0.017s      0.030w     24 calls
HF: Form S/X                        :      0.017u      0.000s      0.004w     24 calls
HF: Guess                           :      0.733u      0.017s      0.253w     24 calls
| SAD Guess                         :      0.717u      0.017s      0.241w     21 calls
HF: Form G                          :      0.200u      0.017s      0.048w    208 calls
| JK: D                             :      0.000u      0.000s      0.001w    208 calls
| JK: USO2AO                        :      0.017u      0.000s      0.000w    208 calls
| JK: JK                            :      0.183u      0.000s      0.045w    208 calls
| | DFH: compute_JK()               :      0.183u      0.000s      0.044w    208 calls
| | | DFH: Grabbing AOs             :      0.000u      0.000s      0.000w    208 calls
| | | DFH: compute_J                :      0.017u      0.000s      0.006w    208 calls
| | | DFH: compute_K                :      0.133u      0.000s      0.035w    208 calls
| JK: AO2USO                        :      0.000u      0.000s      0.000w    208 calls
HF: Form F                          :      0.000u      0.000s      0.001w    208 calls
HF: Form D                          :      0.000u      0.000s      0.001w    208 calls
HF: DIIS                            :      0.367u      0.000s      0.101w    187 calls
| DIISManager::add_entry            :      0.033u      0.000s      0.010w    184 calls
| DIISManager::extrapolate          :      0.017u      0.000s      0.008w    184 calls
| | bMatrix setup                   :      0.000u      0.000s      0.003w    184 calls
| | bMatrix pseudoinverse           :      0.017u      0.000s      0.002w    184 calls
| | New vector                      :      0.000u      0.000s      0.002w    184 calls
HF: Form C                          :      0.100u      0.000s      0.043w    187 calls
Grad: V T Perturb                   :      1.567u      0.033s      0.475w     24 calls
Grad: S                             :      0.017u      0.000s      0.003w     24 calls
Grad: JK                            :      2.017u      0.083s      0.645w     24 calls
| JKGrad: Amn                       :      0.583u      0.000s      0.174w     24 calls
| | Libint2ERI::Libint2ERI          :      0.300u      0.000s      0.085w     48 calls
| JKGrad: Awmn                      :      0.000u      0.000s      0.000w     24 calls
| JKGrad: AB                        :      0.300u      0.000s      0.101w     24 calls
| | Libint2ERI::Libint2ERI          :      0.033u      0.000s      0.001w     48 calls
| JKGrad: UV                        :      0.000u      0.000s      0.003w     24 calls
| JKGrad: ABx                       :      0.150u      0.000s      0.037w     24 calls
| | Libint2ERI::Libint2ERI          :      0.033u      0.000s      0.001w     48 calls
| JKGrad: Amnx                      :      0.967u      0.017s      0.303w     24 calls
| | Libint2ERI::Libint2ERI          :      0.233u      0.017s      0.089w     48 calls
Grad: XC                            :      0.000u      0.000s      0.000w     24 calls

**************************************************************************************

Host: Charlies-MacBook-Air-2.local

Timers On : Wed Jul 20 14:02:02 2022
Timers Off: Wed Jul 20 14:02:09 2022

Wall Time:        7.15 seconds

                                                       Time (seconds)
Module                                       User      System        Wall        Calls
DFH: sparsity prep                  :      0.267u      0.033s      0.093w     24 calls
Libint2ERI::Libint2ERI              :      1.000u      0.033s      0.285w    288 calls
DFH: initialize()                   :      0.883u      0.050s      0.300w     24 calls
DFH: AO Construction                :      0.233u      0.000s      0.072w     24 calls
DFH: AO-Met. Contraction            :      0.083u      0.000s      0.025w     24 calls
HF: Form core H                     :      0.067u      0.000s      0.032w     24 calls
HF: Form S/X                        :      0.017u      0.000s      0.005w     24 calls
HF: Guess                           :      0.850u      0.050s      0.254w     24 calls
SAD Guess                           :      0.783u      0.050s      0.242w     21 calls
HF: Form G                          :      0.200u      0.000s      0.048w    208 calls
JK: D                               :      0.000u      0.000s      0.001w    208 calls
JK: USO2AO                          :      0.000u      0.000s      0.000w    208 calls
JK: JK                              :      0.183u      0.000s      0.044w    208 calls
DFH: compute_JK()                   :      0.167u      0.000s      0.044w    208 calls
DFH: Grabbing AOs                   :      0.000u      0.000s      0.000w    208 calls
DFH: compute_J                      :      0.000u      0.000s      0.006w    208 calls
DFH: compute_K                      :      0.167u      0.000s      0.035w    208 calls
JK: AO2USO                          :      0.000u      0.000s      0.000w    208 calls
HF: Form F                          :      0.000u      0.000s      0.001w    208 calls
HF: Form D                          :      0.000u      0.000s      0.001w    208 calls
HF: DIIS                            :      0.233u      0.017s      0.101w    187 calls
DIISManager::add_entry              :      0.017u      0.000s      0.010w    184 calls
DIISManager::extrapolate            :      0.017u      0.017s      0.008w    184 calls
bMatrix setup                       :      0.017u      0.017s      0.003w    184 calls
bMatrix pseudoinverse               :      0.000u      0.000s      0.002w    184 calls
New vector                          :      0.000u      0.000s      0.002w    184 calls
HF: Form C                          :      0.167u      0.000s      0.043w    187 calls
Grad: V T Perturb                   :      1.550u      0.083s      0.472w     24 calls
Grad: S                             :      0.017u      0.000s      0.003w     24 calls
Grad: JK                            :      2.050u      0.100s      0.680w     24 calls
JKGrad: Amn                         :      0.533u      0.000s      0.178w     24 calls
JKGrad: Awmn                        :      0.000u      0.000s      0.000w     24 calls
JKGrad: AB                          :      0.317u      0.017s      0.101w     24 calls
JKGrad: UV                          :      0.000u      0.000s      0.003w     24 calls
JKGrad: ABx                         :      0.100u      0.000s      0.037w     24 calls
JKGrad: Amnx                        :      0.967u      0.017s      0.302w     24 calls
Grad: XC                            :      0.000u      0.000s      0.000w     24 calls

--------------------------------------------------------------------------------------
DFH: sparsity prep                  :      0.267u      0.033s      0.093w     24 calls
| Libint2ERI::Libint2ERI            :      0.233u      0.033s      0.064w     24 calls
DFH: initialize()                   :      0.883u      0.050s      0.300w     24 calls
| Libint2ERI::Libint2ERI            :      0.233u      0.000s      0.042w     72 calls
| DFH: AO Construction              :      0.233u      0.000s      0.072w     24 calls
| DFH: AO-Met. Contraction          :      0.083u      0.000s      0.025w     24 calls
HF: Form core H                     :      0.067u      0.000s      0.032w     24 calls
HF: Form S/X                        :      0.017u      0.000s      0.005w     24 calls
HF: Guess                           :      0.850u      0.050s      0.254w     24 calls
| SAD Guess                         :      0.783u      0.050s      0.242w     21 calls
HF: Form G                          :      0.200u      0.000s      0.048w    208 calls
| JK: D                             :      0.000u      0.000s      0.001w    208 calls
| JK: USO2AO                        :      0.000u      0.000s      0.000w    208 calls
| JK: JK                            :      0.183u      0.000s      0.044w    208 calls
| | DFH: compute_JK()               :      0.167u      0.000s      0.044w    208 calls
| | | DFH: Grabbing AOs             :      0.000u      0.000s      0.000w    208 calls
| | | DFH: compute_J                :      0.000u      0.000s      0.006w    208 calls
| | | DFH: compute_K                :      0.167u      0.000s      0.035w    208 calls
| JK: AO2USO                        :      0.000u      0.000s      0.000w    208 calls
HF: Form F                          :      0.000u      0.000s      0.001w    208 calls
HF: Form D                          :      0.000u      0.000s      0.001w    208 calls
HF: DIIS                            :      0.233u      0.017s      0.101w    187 calls
| DIISManager::add_entry            :      0.017u      0.000s      0.010w    184 calls
| DIISManager::extrapolate          :      0.017u      0.017s      0.008w    184 calls
| | bMatrix setup                   :      0.017u      0.017s      0.003w    184 calls
| | bMatrix pseudoinverse           :      0.000u      0.000s      0.002w    184 calls
| | New vector                      :      0.000u      0.000s      0.002w    184 calls
HF: Form C                          :      0.167u      0.000s      0.043w    187 calls
Grad: V T Perturb                   :      1.550u      0.083s      0.472w     24 calls
Grad: S                             :      0.017u      0.000s      0.003w     24 calls
Grad: JK                            :      2.050u      0.100s      0.680w     24 calls
| JKGrad: Amn                       :      0.533u      0.000s      0.178w     24 calls
| | Libint2ERI::Libint2ERI          :      0.233u      0.000s      0.088w     48 calls
| JKGrad: Awmn                      :      0.000u      0.000s      0.000w     24 calls
| JKGrad: AB                        :      0.317u      0.017s      0.101w     24 calls
| | Libint2ERI::Libint2ERI          :      0.000u      0.000s      0.001w     48 calls
| JKGrad: UV                        :      0.000u      0.000s      0.003w     24 calls
| JKGrad: ABx                       :      0.100u      0.000s      0.037w     24 calls
| | Libint2ERI::Libint2ERI          :      0.000u      0.000s      0.001w     48 calls
| JKGrad: Amnx                      :      0.967u      0.017s      0.302w     24 calls
| | Libint2ERI::Libint2ERI          :      0.300u      0.000s      0.089w     48 calls
Grad: XC                            :      0.000u      0.000s      0.000w     24 calls

**************************************************************************************

Host: Charlies-MacBook-Air-2.local

Timers On : Wed Jul 20 14:04:36 2022
Timers Off: Wed Jul 20 14:04:43 2022

Wall Time:        6.77 seconds

                                                       Time (seconds)
Module                                       User      System        Wall        Calls
DFH: sparsity prep                  :      0.283u      0.000s      0.080w     24 calls
Libint2ERI::Libint2ERI              :      0.883u      0.000s      0.265w    288 calls
DFH: initialize()                   :      0.867u      0.083s      0.284w     24 calls
DFH: AO Construction                :      0.183u      0.000s      0.069w     24 calls
DFH: AO-Met. Contraction            :      0.100u      0.000s      0.025w     24 calls
HF: Form core H                     :      0.117u      0.000s      0.030w     24 calls
HF: Form S/X                        :      0.000u      0.000s      0.004w     24 calls
HF: Guess                           :      0.833u      0.067s      0.252w     24 calls
SAD Guess                           :      0.767u      0.067s      0.241w     21 calls
HF: Form G                          :      0.100u      0.000s      0.049w    208 calls
JK: D                               :      0.000u      0.000s      0.001w    208 calls
JK: USO2AO                          :      0.000u      0.000s      0.000w    208 calls
JK: JK                              :      0.100u      0.000s      0.045w    208 calls
DFH: compute_JK()                   :      0.100u      0.000s      0.045w    208 calls
DFH: Grabbing AOs                   :      0.000u      0.000s      0.000w    208 calls
DFH: compute_J                      :      0.000u      0.000s      0.006w    208 calls
DFH: compute_K                      :      0.100u      0.000s      0.036w    208 calls
JK: AO2USO                          :      0.000u      0.000s      0.000w    208 calls
HF: Form F                          :      0.017u      0.000s      0.001w    208 calls
HF: Form D                          :      0.000u      0.000s      0.001w    208 calls
HF: DIIS                            :      0.233u      0.033s      0.101w    187 calls
DIISManager::add_entry              :      0.050u      0.017s      0.010w    184 calls
DIISManager::extrapolate            :      0.000u      0.017s      0.008w    184 calls
bMatrix setup                       :      0.000u      0.000s      0.003w    184 calls
bMatrix pseudoinverse               :      0.000u      0.000s      0.002w    184 calls
New vector                          :      0.000u      0.017s      0.002w    184 calls
HF: Form C                          :      0.200u      0.000s      0.044w    187 calls
Grad: V T Perturb                   :      1.550u      0.017s      0.471w     24 calls
Grad: S                             :      0.000u      0.000s      0.003w     24 calls
Grad: JK                            :      2.017u      0.017s      0.627w     24 calls
JKGrad: Amn                         :      0.533u      0.000s      0.174w     24 calls
JKGrad: Awmn                        :      0.000u      0.000s      0.000w     24 calls
JKGrad: AB                          :      0.367u      0.000s      0.101w     24 calls
JKGrad: UV                          :      0.017u      0.000s      0.003w     24 calls
JKGrad: ABx                         :      0.083u      0.000s      0.036w     24 calls
JKGrad: Amnx                        :      0.967u      0.000s      0.285w     24 calls
Grad: XC                            :      0.000u      0.000s      0.000w     24 calls

--------------------------------------------------------------------------------------
DFH: sparsity prep                  :      0.283u      0.000s      0.080w     24 calls
| Libint2ERI::Libint2ERI            :      0.167u      0.000s      0.053w     24 calls
DFH: initialize()                   :      0.867u      0.083s      0.284w     24 calls
| Libint2ERI::Libint2ERI            :      0.117u      0.000s      0.041w     72 calls
| DFH: AO Construction              :      0.183u      0.000s      0.069w     24 calls
| DFH: AO-Met. Contraction          :      0.100u      0.000s      0.025w     24 calls
HF: Form core H                     :      0.117u      0.000s      0.030w     24 calls
HF: Form S/X                        :      0.000u      0.000s      0.004w     24 calls
HF: Guess                           :      0.833u      0.067s      0.252w     24 calls
| SAD Guess                         :      0.767u      0.067s      0.241w     21 calls
HF: Form G                          :      0.100u      0.000s      0.049w    208 calls
| JK: D                             :      0.000u      0.000s      0.001w    208 calls
| JK: USO2AO                        :      0.000u      0.000s      0.000w    208 calls
| JK: JK                            :      0.100u      0.000s      0.045w    208 calls
| | DFH: compute_JK()               :      0.100u      0.000s      0.045w    208 calls
| | | DFH: Grabbing AOs             :      0.000u      0.000s      0.000w    208 calls
| | | DFH: compute_J                :      0.000u      0.000s      0.006w    208 calls
| | | DFH: compute_K                :      0.100u      0.000s      0.036w    208 calls
| JK: AO2USO                        :      0.000u      0.000s      0.000w    208 calls
HF: Form F                          :      0.017u      0.000s      0.001w    208 calls
HF: Form D                          :      0.000u      0.000s      0.001w    208 calls
HF: DIIS                            :      0.233u      0.033s      0.101w    187 calls
| DIISManager::add_entry            :      0.050u      0.017s      0.010w    184 calls
| DIISManager::extrapolate          :      0.000u      0.017s      0.008w    184 calls
| | bMatrix setup                   :      0.000u      0.000s      0.003w    184 calls
| | bMatrix pseudoinverse           :      0.000u      0.000s      0.002w    184 calls
| | New vector                      :      0.000u      0.017s      0.002w    184 calls
HF: Form C                          :      0.200u      0.000s      0.044w    187 calls
Grad: V T Perturb                   :      1.550u      0.017s      0.471w     24 calls
Grad: S                             :      0.000u      0.000s      0.003w     24 calls
Grad: JK                            :      2.017u      0.017s      0.627w     24 calls
| JKGrad: Amn                       :      0.533u      0.000s      0.174w     24 calls
| | Libint2ERI::Libint2ERI          :      0.300u      0.000s      0.086w     48 calls
| JKGrad: Awmn                      :      0.000u      0.000s      0.000w     24 calls
| JKGrad: AB                        :      0.367u      0.000s      0.101w     24 calls
| | Libint2ERI::Libint2ERI          :      0.017u      0.000s      0.001w     48 calls
| JKGrad: UV                        :      0.017u      0.000s      0.003w     24 calls
| JKGrad: ABx                       :      0.083u      0.000s      0.036w     24 calls
| | Libint2ERI::Libint2ERI          :      0.000u      0.000s      0.001w     48 calls
| JKGrad: Amnx                      :      0.967u      0.000s      0.285w     24 calls
| | Libint2ERI::Libint2ERI          :      0.283u      0.000s      0.084w     48 calls
Grad: XC                            :      0.000u      0.000s      0.000w     24 calls

**************************************************************************************

Host: Charlies-MacBook-Air-2.local

Timers On : Wed Jul 20 14:09:25 2022
Timers Off: Wed Jul 20 14:09:32 2022

Wall Time:        7.22 seconds

                                                       Time (seconds)
Module                                       User      System        Wall        Calls
DFH: sparsity prep                  :      0.183u      0.017s      0.097w     24 calls
Libint2ERI::Libint2ERI              :      0.783u      0.033s      0.285w    288 calls
DFH: initialize()                   :      0.933u      0.067s      0.298w     24 calls
DFH: AO Construction                :      0.133u      0.000s      0.068w     24 calls
DFH: AO-Met. Contraction            :      0.133u      0.000s      0.025w     24 calls
HF: Form core H                     :      0.117u      0.017s      0.032w     24 calls
HF: Form S/X                        :      0.000u      0.000s      0.005w     24 calls
HF: Guess                           :      0.783u      0.033s      0.254w     24 calls
SAD Guess                           :      0.767u      0.033s      0.243w     21 calls
HF: Form G                          :      0.217u      0.000s      0.047w    208 calls
JK: D                               :      0.000u      0.000s      0.001w    208 calls
JK: USO2AO                          :      0.000u      0.000s      0.000w    208 calls
JK: JK                              :      0.183u      0.000s      0.044w    208 calls
DFH: compute_JK()                   :      0.183u      0.000s      0.043w    208 calls
DFH: Grabbing AOs                   :      0.000u      0.000s      0.000w    208 calls
DFH: compute_J                      :      0.033u      0.000s      0.006w    208 calls
DFH: compute_K                      :      0.150u      0.000s      0.034w    208 calls
JK: AO2USO                          :      0.000u      0.000s      0.000w    208 calls
HF: Form F                          :      0.017u      0.000s      0.001w    208 calls
HF: Form D                          :      0.000u      0.000s      0.001w    208 calls
HF: DIIS                            :      0.283u      0.000s      0.102w    187 calls
DIISManager::add_entry              :      0.050u      0.000s      0.010w    184 calls
DIISManager::extrapolate            :      0.000u      0.000s      0.008w    184 calls
bMatrix setup                       :      0.000u      0.000s      0.003w    184 calls
bMatrix pseudoinverse               :      0.000u      0.000s      0.002w    184 calls
New vector                          :      0.000u      0.000s      0.002w    184 calls
HF: Form C                          :      0.117u      0.000s      0.043w    187 calls
Grad: V T Perturb                   :      1.517u      0.050s      0.466w     24 calls
Grad: S                             :      0.017u      0.000s      0.003w     24 calls
Grad: JK                            :      2.017u      0.100s      0.643w     24 calls
JKGrad: Amn                         :      0.583u      0.000s      0.174w     24 calls
JKGrad: Awmn                        :      0.000u      0.000s      0.000w     24 calls
JKGrad: AB                          :      0.317u      0.033s      0.101w     24 calls
JKGrad: UV                          :      0.000u      0.000s      0.003w     24 calls
JKGrad: ABx                         :      0.133u      0.000s      0.037w     24 calls
JKGrad: Amnx                        :      0.933u      0.033s      0.301w     24 calls
Grad: XC                            :      0.000u      0.000s      0.000w     24 calls

--------------------------------------------------------------------------------------
DFH: sparsity prep                  :      0.183u      0.017s      0.097w     24 calls
| Libint2ERI::Libint2ERI            :      0.117u      0.017s      0.069w     24 calls
DFH: initialize()                   :      0.933u      0.067s      0.298w     24 calls
| Libint2ERI::Libint2ERI            :      0.100u      0.000s      0.042w     72 calls
| DFH: AO Construction              :      0.133u      0.000s      0.068w     24 calls
| DFH: AO-Met. Contraction          :      0.133u      0.000s      0.025w     24 calls
HF: Form core H                     :      0.117u      0.017s      0.032w     24 calls
HF: Form S/X                        :      0.000u      0.000s      0.005w     24 calls
HF: Guess                           :      0.783u      0.033s      0.254w     24 calls
| SAD Guess                         :      0.767u      0.033s      0.243w     21 calls
HF: Form G                          :      0.217u      0.000s      0.047w    208 calls
| JK: D                             :      0.000u      0.000s      0.001w    208 calls
| JK: USO2AO                        :      0.000u      0.000s      0.000w    208 calls
| JK: JK                            :      0.183u      0.000s      0.044w    208 calls
| | DFH: compute_JK()               :      0.183u      0.000s      0.043w    208 calls
| | | DFH: Grabbing AOs             :      0.000u      0.000s      0.000w    208 calls
| | | DFH: compute_J                :      0.033u      0.000s      0.006w    208 calls
| | | DFH: compute_K                :      0.150u      0.000s      0.034w    208 calls
| JK: AO2USO                        :      0.000u      0.000s      0.000w    208 calls
HF: Form F                          :      0.017u      0.000s      0.001w    208 calls
HF: Form D                          :      0.000u      0.000s      0.001w    208 calls
HF: DIIS                            :      0.283u      0.000s      0.102w    187 calls
| DIISManager::add_entry            :      0.050u      0.000s      0.010w    184 calls
| DIISManager::extrapolate          :      0.000u      0.000s      0.008w    184 calls
| | bMatrix setup                   :      0.000u      0.000s      0.003w    184 calls
| | bMatrix pseudoinverse           :      0.000u      0.000s      0.002w    184 calls
| | New vector                      :      0.000u      0.000s      0.002w    184 calls
HF: Form C                          :      0.117u      0.000s      0.043w    187 calls
Grad: V T Perturb                   :      1.517u      0.050s      0.466w     24 calls
Grad: S                             :      0.017u      0.000s      0.003w     24 calls
Grad: JK                            :      2.017u      0.100s      0.643w     24 calls
| JKGrad: Amn                       :      0.583u      0.000s      0.174w     24 calls
| | Libint2ERI::Libint2ERI          :      0.333u      0.000s      0.085w     48 calls
| JKGrad: Awmn                      :      0.000u      0.000s      0.000w     24 calls
| JKGrad: AB                        :      0.317u      0.033s      0.101w     24 calls
| | Libint2ERI::Libint2ERI          :      0.000u      0.000s      0.001w     48 calls
| JKGrad: UV                        :      0.000u      0.000s      0.003w     24 calls
| JKGrad: ABx                       :      0.133u      0.000s      0.037w     24 calls
| | Libint2ERI::Libint2ERI          :      0.017u      0.000s      0.001w     48 calls
| JKGrad: Amnx                      :      0.933u      0.033s      0.301w     24 calls
| | Libint2ERI::Libint2ERI          :      0.217u      0.017s      0.087w     48 calls
Grad: XC                            :      0.000u      0.000s      0.000w     24 calls

**************************************************************************************

Host: Charlies-MacBook-Air-2.local

Timers On : Wed Jul 20 14:09:56 2022
Timers Off: Wed Jul 20 14:10:03 2022

Wall Time:        6.61 seconds

                                                       Time (seconds)
Module                                       User      System        Wall        Calls
DFH: sparsity prep                  :      0.183u      0.000s      0.081w     24 calls
Libint2ERI::Libint2ERI              :      0.667u      0.033s      0.266w    288 calls
DFH: initialize()                   :      0.950u      0.067s      0.289w     24 calls
DFH: AO Construction                :      0.183u      0.017s      0.070w     24 calls
DFH: AO-Met. Contraction            :      0.183u      0.000s      0.025w     24 calls
HF: Form core H                     :      0.033u      0.017s      0.029w     24 calls
HF: Form S/X                        :      0.017u      0.000s      0.004w     24 calls
HF: Guess                           :      0.733u      0.033s      0.246w     24 calls
SAD Guess                           :      0.717u      0.033s      0.235w     21 calls
HF: Form G                          :      0.117u      0.000s      0.047w    208 calls
JK: D                               :      0.017u      0.000s      0.001w    208 calls
JK: USO2AO                          :      0.000u      0.000s      0.000w    208 calls
JK: JK                              :      0.100u      0.000s      0.043w    208 calls
DFH: compute_JK()                   :      0.100u      0.000s      0.043w    208 calls
DFH: Grabbing AOs                   :      0.000u      0.000s      0.000w    208 calls
DFH: compute_J                      :      0.000u      0.000s      0.006w    208 calls
DFH: compute_K                      :      0.100u      0.000s      0.034w    208 calls
JK: AO2USO                          :      0.000u      0.000s      0.000w    208 calls
HF: Form F                          :      0.000u      0.000s      0.001w    208 calls
HF: Form D                          :      0.000u      0.000s      0.001w    208 calls
HF: DIIS                            :      0.183u      0.017s      0.101w    187 calls
DIISManager::add_entry              :      0.000u      0.000s      0.010w    184 calls
DIISManager::extrapolate            :      0.000u      0.017s      0.008w    184 calls
bMatrix setup                       :      0.000u      0.017s      0.003w    184 calls
bMatrix pseudoinverse               :      0.000u      0.000s      0.002w    184 calls
New vector                          :      0.000u      0.000s      0.002w    184 calls
HF: Form C                          :      0.333u      0.000s      0.043w    187 calls
Grad: V T Perturb                   :      1.550u      0.033s      0.464w     24 calls
Grad: S                             :      0.000u      0.000s      0.003w     24 calls
Grad: JK                            :      1.983u      0.067s      0.626w     24 calls
JKGrad: Amn                         :      0.583u      0.017s      0.173w     24 calls
JKGrad: Awmn                        :      0.000u      0.000s      0.000w     24 calls
JKGrad: AB                          :      0.283u      0.000s      0.100w     24 calls
JKGrad: UV                          :      0.017u      0.000s      0.003w     24 calls
JKGrad: ABx                         :      0.217u      0.000s      0.036w     24 calls
JKGrad: Amnx                        :      0.867u      0.017s      0.285w     24 calls
Grad: XC                            :      0.000u      0.000s      0.000w     24 calls

--------------------------------------------------------------------------------------
DFH: sparsity prep                  :      0.183u      0.000s      0.081w     24 calls
| Libint2ERI::Libint2ERI            :      0.100u      0.000s      0.053w     24 calls
DFH: initialize()                   :      0.950u      0.067s      0.289w     24 calls
| Libint2ERI::Libint2ERI            :      0.083u      0.000s      0.041w     72 calls
| DFH: AO Construction              :      0.183u      0.017s      0.070w     24 calls
| DFH: AO-Met. Contraction          :      0.183u      0.000s      0.025w     24 calls
HF: Form core H                     :      0.033u      0.017s      0.029w     24 calls
HF: Form S/X                        :      0.017u      0.000s      0.004w     24 calls
HF: Guess                           :      0.733u      0.033s      0.246w     24 calls
| SAD Guess                         :      0.717u      0.033s      0.235w     21 calls
HF: Form G                          :      0.117u      0.000s      0.047w    208 calls
| JK: D                             :      0.017u      0.000s      0.001w    208 calls
| JK: USO2AO                        :      0.000u      0.000s      0.000w    208 calls
| JK: JK                            :      0.100u      0.000s      0.043w    208 calls
| | DFH: compute_JK()               :      0.100u      0.000s      0.043w    208 calls
| | | DFH: Grabbing AOs             :      0.000u      0.000s      0.000w    208 calls
| | | DFH: compute_J                :      0.000u      0.000s      0.006w    208 calls
| | | DFH: compute_K                :      0.100u      0.000s      0.034w    208 calls
| JK: AO2USO                        :      0.000u      0.000s      0.000w    208 calls
HF: Form F                          :      0.000u      0.000s      0.001w    208 calls
HF: Form D                          :      0.000u      0.000s      0.001w    208 calls
HF: DIIS                            :      0.183u      0.017s      0.101w    187 calls
| DIISManager::add_entry            :      0.000u      0.000s      0.010w    184 calls
| DIISManager::extrapolate          :      0.000u      0.017s      0.008w    184 calls
| | bMatrix setup                   :      0.000u      0.017s      0.003w    184 calls
| | bMatrix pseudoinverse           :      0.000u      0.000s      0.002w    184 calls
| | New vector                      :      0.000u      0.000s      0.002w    184 calls
HF: Form C                          :      0.333u      0.000s      0.043w    187 calls
Grad: V T Perturb                   :      1.550u      0.033s      0.464w     24 calls
Grad: S                             :      0.000u      0.000s      0.003w     24 calls
Grad: JK                            :      1.983u      0.067s      0.626w     24 calls
| JKGrad: Amn                       :      0.583u      0.017s      0.173w     24 calls
| | Libint2ERI::Libint2ERI          :      0.283u      0.017s      0.086w     48 calls
| JKGrad: Awmn                      :      0.000u      0.000s      0.000w     24 calls
| JKGrad: AB                        :      0.283u      0.000s      0.100w     24 calls
| | Libint2ERI::Libint2ERI          :      0.000u      0.000s      0.001w     48 calls
| JKGrad: UV                        :      0.017u      0.000s      0.003w     24 calls
| JKGrad: ABx                       :      0.217u      0.000s      0.036w     24 calls
| | Libint2ERI::Libint2ERI          :      0.000u      0.000s      0.001w     48 calls
| JKGrad: Amnx                      :      0.867u      0.017s      0.285w     24 calls
| | Libint2ERI::Libint2ERI          :      0.200u      0.017s      0.084w     48 calls
Grad: XC                            :      0.000u      0.000s      0.000w     24 calls

**************************************************************************************

Host: Charlies-MacBook-Air-2.local

Timers On : Wed Jul 20 14:13:27 2022
Timers Off: Wed Jul 20 14:13:33 2022

Wall Time:        6.65 seconds

                                                       Time (seconds)
Module                                       User      System        Wall        Calls
DFH: sparsity prep                  :      0.283u      0.000s      0.078w     24 calls
Libint2ERI::Libint2ERI              :      0.883u      0.017s      0.267w    288 calls
DFH: initialize()                   :      0.867u      0.033s      0.288w     24 calls
DFH: AO Construction                :      0.250u      0.000s      0.070w     24 calls
DFH: AO-Met. Contraction            :      0.100u      0.000s      0.025w     24 calls
HF: Form core H                     :      0.050u      0.000s      0.029w     24 calls
HF: Form S/X                        :      0.000u      0.000s      0.004w     24 calls
HF: Guess                           :      0.883u      0.050s      0.252w     24 calls
SAD Guess                           :      0.800u      0.050s      0.241w     21 calls
HF: Form G                          :      0.167u      0.000s      0.047w    208 calls
JK: D                               :      0.017u      0.000s      0.001w    208 calls
JK: USO2AO                          :      0.000u      0.000s      0.000w    208 calls
JK: JK                              :      0.117u      0.000s      0.043w    208 calls
DFH: compute_JK()                   :      0.117u      0.000s      0.043w    208 calls
DFH: Grabbing AOs                   :      0.000u      0.000s      0.000w    208 calls
DFH: compute_J                      :      0.000u      0.000s      0.006w    208 calls
DFH: compute_K                      :      0.117u      0.000s      0.034w    208 calls
JK: AO2USO                          :      0.000u      0.000s      0.000w    208 calls
HF: Form F                          :      0.000u      0.000s      0.001w    208 calls
HF: Form D                          :      0.017u      0.000s      0.001w    208 calls
HF: DIIS                            :      0.150u      0.000s      0.102w    187 calls
DIISManager::add_entry              :      0.017u      0.000s      0.010w    184 calls
DIISManager::extrapolate            :      0.000u      0.000s      0.008w    184 calls
bMatrix setup                       :      0.000u      0.000s      0.003w    184 calls
bMatrix pseudoinverse               :      0.000u      0.000s      0.002w    184 calls
New vector                          :      0.000u      0.000s      0.002w    184 calls
HF: Form C                          :      0.250u      0.000s      0.043w    187 calls
Grad: V T Perturb                   :      1.567u      0.033s      0.465w     24 calls
Grad: S                             :      0.000u      0.000s      0.003w     24 calls
Grad: JK                            :      2.017u      0.117s      0.630w     24 calls
JKGrad: Amn                         :      0.567u      0.017s      0.176w     24 calls
JKGrad: Awmn                        :      0.000u      0.000s      0.000w     24 calls
JKGrad: AB                          :      0.300u      0.017s      0.101w     24 calls
JKGrad: UV                          :      0.000u      0.017s      0.003w     24 calls
JKGrad: ABx                         :      0.133u      0.000s      0.036w     24 calls
JKGrad: Amnx                        :      0.917u      0.000s      0.287w     24 calls
Grad: XC                            :      0.000u      0.000s      0.000w     24 calls

--------------------------------------------------------------------------------------
DFH: sparsity prep                  :      0.283u      0.000s      0.078w     24 calls
| Libint2ERI::Libint2ERI            :      0.167u      0.000s      0.051w     24 calls
DFH: initialize()                   :      0.867u      0.033s      0.288w     24 calls
| Libint2ERI::Libint2ERI            :      0.150u      0.000s      0.040w     72 calls
| DFH: AO Construction              :      0.250u      0.000s      0.070w     24 calls
| DFH: AO-Met. Contraction          :      0.100u      0.000s      0.025w     24 calls
HF: Form core H                     :      0.050u      0.000s      0.029w     24 calls
HF: Form S/X                        :      0.000u      0.000s      0.004w     24 calls
HF: Guess                           :      0.883u      0.050s      0.252w     24 calls
| SAD Guess                         :      0.800u      0.050s      0.241w     21 calls
HF: Form G                          :      0.167u      0.000s      0.047w    208 calls
| JK: D                             :      0.017u      0.000s      0.001w    208 calls
| JK: USO2AO                        :      0.000u      0.000s      0.000w    208 calls
| JK: JK                            :      0.117u      0.000s      0.043w    208 calls
| | DFH: compute_JK()               :      0.117u      0.000s      0.043w    208 calls
| | | DFH: Grabbing AOs             :      0.000u      0.000s      0.000w    208 calls
| | | DFH: compute_J                :      0.000u      0.000s      0.006w    208 calls
| | | DFH: compute_K                :      0.117u      0.000s      0.034w    208 calls
| JK: AO2USO                        :      0.000u      0.000s      0.000w    208 calls
HF: Form F                          :      0.000u      0.000s      0.001w    208 calls
HF: Form D                          :      0.017u      0.000s      0.001w    208 calls
HF: DIIS                            :      0.150u      0.000s      0.102w    187 calls
| DIISManager::add_entry            :      0.017u      0.000s      0.010w    184 calls
| DIISManager::extrapolate          :      0.000u      0.000s      0.008w    184 calls
| | bMatrix setup                   :      0.000u      0.000s      0.003w    184 calls
| | bMatrix pseudoinverse           :      0.000u      0.000s      0.002w    184 calls
| | New vector                      :      0.000u      0.000s      0.002w    184 calls
HF: Form C                          :      0.250u      0.000s      0.043w    187 calls
Grad: V T Perturb                   :      1.567u      0.033s      0.465w     24 calls
Grad: S                             :      0.000u      0.000s      0.003w     24 calls
Grad: JK                            :      2.017u      0.117s      0.630w     24 calls
| JKGrad: Amn                       :      0.567u      0.017s      0.176w     24 calls
| | Libint2ERI::Libint2ERI          :      0.283u      0.017s      0.088w     48 calls
| JKGrad: Awmn                      :      0.000u      0.000s      0.000w     24 calls
| JKGrad: AB                        :      0.300u      0.017s      0.101w     24 calls
| | Libint2ERI::Libint2ERI          :      0.000u      0.000s      0.001w     48 calls
| JKGrad: UV                        :      0.000u      0.017s      0.003w     24 calls
| JKGrad: ABx                       :      0.133u      0.000s      0.036w     24 calls
| | Libint2ERI::Libint2ERI          :      0.000u      0.000s      0.001w     48 calls
| JKGrad: Amnx                      :      0.917u      0.000s      0.287w     24 calls
| | Libint2ERI::Libint2ERI          :      0.283u      0.000s      0.085w     48 calls
Grad: XC                            :      0.000u      0.000s      0.000w     24 calls

**************************************************************************************

Host: Charlies-MacBook-Air-2.local

Timers On : Wed Jul 20 14:16:54 2022
Timers Off: Wed Jul 20 14:17:01 2022

Wall Time:        6.95 seconds

                                                       Time (seconds)
Module                                       User      System        Wall        Calls
DFH: sparsity prep                  :      0.233u      0.000s      0.093w     24 calls
Libint2ERI::Libint2ERI              :      0.900u      0.017s      0.281w    288 calls
DFH: initialize()                   :      0.883u      0.017s      0.298w     24 calls
DFH: AO Construction                :      0.200u      0.000s      0.068w     24 calls
DFH: AO-Met. Contraction            :      0.067u      0.000s      0.025w     24 calls
HF: Form core H                     :      0.117u      0.017s      0.030w     24 calls
HF: Form S/X                        :      0.017u      0.017s      0.005w     24 calls
HF: Guess                           :      0.817u      0.017s      0.251w     24 calls
SAD Guess                           :      0.767u      0.017s      0.240w     21 calls
HF: Form G                          :      0.100u      0.000s      0.049w    208 calls
JK: D                               :      0.000u      0.000s      0.001w    208 calls
JK: USO2AO                          :      0.000u      0.000s      0.000w    208 calls
JK: JK                              :      0.083u      0.000s      0.045w    208 calls
DFH: compute_JK()                   :      0.067u      0.000s      0.045w    208 calls
DFH: Grabbing AOs                   :      0.000u      0.000s      0.000w    208 calls
DFH: compute_J                      :      0.017u      0.000s      0.006w    208 calls
DFH: compute_K                      :      0.033u      0.000s      0.035w    208 calls
JK: AO2USO                          :      0.000u      0.000s      0.000w    208 calls
HF: Form F                          :      0.000u      0.000s      0.001w    208 calls
HF: Form D                          :      0.000u      0.000s      0.001w    208 calls
HF: DIIS                            :      0.350u      0.000s      0.103w    187 calls
DIISManager::add_entry              :      0.083u      0.000s      0.010w    184 calls
DIISManager::extrapolate            :      0.017u      0.000s      0.008w    184 calls
bMatrix setup                       :      0.017u      0.000s      0.003w    184 calls
bMatrix pseudoinverse               :      0.000u      0.000s      0.002w    184 calls
New vector                          :      0.000u      0.000s      0.002w    184 calls
HF: Form C                          :      0.117u      0.000s      0.043w    187 calls
Grad: V T Perturb                   :      1.567u      0.050s      0.467w     24 calls
Grad: S                             :      0.017u      0.000s      0.003w     24 calls
Grad: JK                            :      2.000u      0.067s      0.629w     24 calls
JKGrad: Amn                         :      0.550u      0.017s      0.173w     24 calls
JKGrad: Awmn                        :      0.000u      0.000s      0.000w     24 calls
JKGrad: AB                          :      0.267u      0.000s      0.101w     24 calls
JKGrad: UV                          :      0.000u      0.000s      0.003w     24 calls
JKGrad: ABx                         :      0.183u      0.000s      0.036w     24 calls
JKGrad: Amnx                        :      0.983u      0.017s      0.289w     24 calls
Grad: XC                            :      0.000u      0.000s      0.000w     24 calls

--------------------------------------------------------------------------------------
DFH: sparsity prep                  :      0.233u      0.000s      0.093w     24 calls
| Libint2ERI::Libint2ERI            :      0.183u      0.000s      0.065w     24 calls
DFH: initialize()                   :      0.883u      0.017s      0.298w     24 calls
| Libint2ERI::Libint2ERI            :      0.133u      0.000s      0.043w     72 calls
| DFH: AO Construction              :      0.200u      0.000s      0.068w     24 calls
| DFH: AO-Met. Contraction          :      0.067u      0.000s      0.025w     24 calls
HF: Form core H                     :      0.117u      0.017s      0.030w     24 calls
HF: Form S/X                        :      0.017u      0.017s      0.005w     24 calls
HF: Guess                           :      0.817u      0.017s      0.251w     24 calls
| SAD Guess                         :      0.767u      0.017s      0.240w     21 calls
HF: Form G                          :      0.100u      0.000s      0.049w    208 calls
| JK: D                             :      0.000u      0.000s      0.001w    208 calls
| JK: USO2AO                        :      0.000u      0.000s      0.000w    208 calls
| JK: JK                            :      0.083u      0.000s      0.045w    208 calls
| | DFH: compute_JK()               :      0.067u      0.000s      0.045w    208 calls
| | | DFH: Grabbing AOs             :      0.000u      0.000s      0.000w    208 calls
| | | DFH: compute_J                :      0.017u      0.000s      0.006w    208 calls
| | | DFH: compute_K                :      0.033u      0.000s      0.035w    208 calls
| JK: AO2USO                        :      0.000u      0.000s      0.000w    208 calls
HF: Form F                          :      0.000u      0.000s      0.001w    208 calls
HF: Form D                          :      0.000u      0.000s      0.001w    208 calls
HF: DIIS                            :      0.350u      0.000s      0.103w    187 calls
| DIISManager::add_entry            :      0.083u      0.000s      0.010w    184 calls
| DIISManager::extrapolate          :      0.017u      0.000s      0.008w    184 calls
| | bMatrix setup                   :      0.017u      0.000s      0.003w    184 calls
| | bMatrix pseudoinverse           :      0.000u      0.000s      0.002w    184 calls
| | New vector                      :      0.000u      0.000s      0.002w    184 calls
HF: Form C                          :      0.117u      0.000s      0.043w    187 calls
Grad: V T Perturb                   :      1.567u      0.050s      0.467w     24 calls
Grad: S                             :      0.017u      0.000s      0.003w     24 calls
Grad: JK                            :      2.000u      0.067s      0.629w     24 calls
| JKGrad: Amn                       :      0.550u      0.017s      0.173w     24 calls
| | Libint2ERI::Libint2ERI          :      0.317u      0.000s      0.085w     48 calls
| JKGrad: Awmn                      :      0.000u      0.000s      0.000w     24 calls
| JKGrad: AB                        :      0.267u      0.000s      0.101w     24 calls
| | Libint2ERI::Libint2ERI          :      0.000u      0.000s      0.001w     48 calls
| JKGrad: UV                        :      0.000u      0.000s      0.003w     24 calls
| JKGrad: ABx                       :      0.183u      0.000s      0.036w     24 calls
| | Libint2ERI::Libint2ERI          :      0.017u      0.000s      0.001w     48 calls
| JKGrad: Amnx                      :      0.983u      0.017s      0.289w     24 calls
| | Libint2ERI::Libint2ERI          :      0.250u      0.017s      0.086w     48 calls
Grad: XC                            :      0.000u      0.000s      0.000w     24 calls

**************************************************************************************

Host: Charlies-MacBook-Air-2.local

Timers On : Wed Jul 20 14:18:28 2022
Timers Off: Wed Jul 20 14:18:34 2022

Wall Time:        6.84 seconds

                                                       Time (seconds)
Module                                       User      System        Wall        Calls
DFH: sparsity prep                  :      0.250u      0.017s      0.081w     24 calls
Libint2ERI::Libint2ERI              :      0.883u      0.033s      0.267w    288 calls
DFH: initialize()                   :      0.833u      0.117s      0.291w     24 calls
DFH: AO Construction                :      0.267u      0.000s      0.068w     24 calls
DFH: AO-Met. Contraction            :      0.033u      0.000s      0.025w     24 calls
HF: Form core H                     :      0.100u      0.017s      0.030w     24 calls
HF: Form S/X                        :      0.000u      0.000s      0.004w     24 calls
HF: Guess                           :      0.783u      0.050s      0.249w     24 calls
SAD Guess                           :      0.750u      0.050s      0.238w     21 calls
HF: Form G                          :      0.083u      0.000s      0.047w    208 calls
JK: D                               :      0.000u      0.000s      0.001w    208 calls
JK: USO2AO                          :      0.000u      0.000s      0.000w    208 calls
JK: JK                              :      0.083u      0.000s      0.043w    208 calls
DFH: compute_JK()                   :      0.083u      0.000s      0.043w    208 calls
DFH: Grabbing AOs                   :      0.000u      0.000s      0.000w    208 calls
DFH: compute_J                      :      0.000u      0.000s      0.006w    208 calls
DFH: compute_K                      :      0.083u      0.000s      0.034w    208 calls
JK: AO2USO                          :      0.000u      0.000s      0.000w    208 calls
HF: Form F                          :      0.000u      0.000s      0.001w    208 calls
HF: Form D                          :      0.000u      0.000s      0.001w    208 calls
HF: DIIS                            :      0.533u      0.000s      0.103w    187 calls
DIISManager::add_entry              :      0.067u      0.000s      0.010w    184 calls
DIISManager::extrapolate            :      0.050u      0.000s      0.008w    184 calls
bMatrix setup                       :      0.033u      0.000s      0.003w    184 calls
bMatrix pseudoinverse               :      0.017u      0.000s      0.002w    184 calls
New vector                          :      0.000u      0.000s      0.002w    184 calls
HF: Form C                          :      0.083u      0.000s      0.043w    187 calls
Grad: V T Perturb                   :      1.483u      0.033s      0.470w     24 calls
Grad: S                             :      0.033u      0.000s      0.003w     24 calls
Grad: JK                            :      1.967u      0.067s      0.631w     24 calls
JKGrad: Amn                         :      0.500u      0.017s      0.173w     24 calls
JKGrad: Awmn                        :      0.000u      0.000s      0.000w     24 calls
JKGrad: AB                          :      0.367u      0.000s      0.102w     24 calls
JKGrad: UV                          :      0.000u      0.017s      0.003w     24 calls
JKGrad: ABx                         :      0.100u      0.000s      0.036w     24 calls
JKGrad: Amnx                        :      0.950u      0.000s      0.289w     24 calls
Grad: XC                            :      0.000u      0.000s      0.000w     24 calls

--------------------------------------------------------------------------------------
DFH: sparsity prep                  :      0.250u      0.017s      0.081w     24 calls
| Libint2ERI::Libint2ERI            :      0.200u      0.017s      0.054w     24 calls
DFH: initialize()                   :      0.833u      0.117s      0.291w     24 calls
| Libint2ERI::Libint2ERI            :      0.183u      0.000s      0.041w     72 calls
| DFH: AO Construction              :      0.267u      0.000s      0.068w     24 calls
| DFH: AO-Met. Contraction          :      0.033u      0.000s      0.025w     24 calls
HF: Form core H                     :      0.100u      0.017s      0.030w     24 calls
HF: Form S/X                        :      0.000u      0.000s      0.004w     24 calls
HF: Guess                           :      0.783u      0.050s      0.249w     24 calls
| SAD Guess                         :      0.750u      0.050s      0.238w     21 calls
HF: Form G                          :      0.083u      0.000s      0.047w    208 calls
| JK: D                             :      0.000u      0.000s      0.001w    208 calls
| JK: USO2AO                        :      0.000u      0.000s      0.000w    208 calls
| JK: JK                            :      0.083u      0.000s      0.043w    208 calls
| | DFH: compute_JK()               :      0.083u      0.000s      0.043w    208 calls
| | | DFH: Grabbing AOs             :      0.000u      0.000s      0.000w    208 calls
| | | DFH: compute_J                :      0.000u      0.000s      0.006w    208 calls
| | | DFH: compute_K                :      0.083u      0.000s      0.034w    208 calls
| JK: AO2USO                        :      0.000u      0.000s      0.000w    208 calls
HF: Form F                          :      0.000u      0.000s      0.001w    208 calls
HF: Form D                          :      0.000u      0.000s      0.001w    208 calls
HF: DIIS                            :      0.533u      0.000s      0.103w    187 calls
| DIISManager::add_entry            :      0.067u      0.000s      0.010w    184 calls
| DIISManager::extrapolate          :      0.050u      0.000s      0.008w    184 calls
| | bMatrix setup                   :      0.033u      0.000s      0.003w    184 calls
| | bMatrix pseudoinverse           :      0.017u      0.000s      0.002w    184 calls
| | New vector                      :      0.000u      0.000s      0.002w    184 calls
HF: Form C                          :      0.083u      0.000s      0.043w    187 calls
Grad: V T Perturb                   :      1.483u      0.033s      0.470w     24 calls
Grad: S                             :      0.033u      0.000s      0.003w     24 calls
Grad: JK                            :      1.967u      0.067s      0.631w     24 calls
| JKGrad: Amn                       :      0.500u      0.017s      0.173w     24 calls
| | Libint2ERI::Libint2ERI          :      0.217u      0.017s      0.085w     48 calls
| JKGrad: Awmn                      :      0.000u      0.000s      0.000w     24 calls
| JKGrad: AB                        :      0.367u      0.000s      0.102w     24 calls
| | Libint2ERI::Libint2ERI          :      0.000u      0.000s      0.001w     48 calls
| JKGrad: UV                        :      0.000u      0.017s      0.003w     24 calls
| JKGrad: ABx                       :      0.100u      0.000s      0.036w     24 calls
| | Libint2ERI::Libint2ERI          :      0.000u      0.000s      0.001w     48 calls
| JKGrad: Amnx                      :      0.950u      0.000s      0.289w     24 calls
| | Libint2ERI::Libint2ERI          :      0.283u      0.000s      0.085w     48 calls
Grad: XC                            :      0.000u      0.000s      0.000w     24 calls

**************************************************************************************

Host: Charlies-MacBook-Air-2.local

Timers On : Wed Jul 20 14:20:39 2022
Timers Off: Wed Jul 20 14:20:46 2022

Wall Time:        7.16 seconds

                                                       Time (seconds)
Module                                       User      System        Wall        Calls
DFH: sparsity prep                  :      0.267u      0.000s      0.101w     24 calls
Libint2ERI::Libint2ERI              :      0.833u      0.000s      0.287w    288 calls
DFH: initialize()                   :      0.933u      0.050s      0.310w     24 calls
DFH: AO Construction                :      0.167u      0.000s      0.072w     24 calls
DFH: AO-Met. Contraction            :      0.133u      0.000s      0.025w     24 calls
HF: Form core H                     :      0.067u      0.017s      0.031w     24 calls
HF: Form S/X                        :      0.017u      0.000s      0.005w     24 calls
HF: Guess                           :      0.833u      0.050s      0.252w     24 calls
SAD Guess                           :      0.783u      0.050s      0.240w     21 calls
HF: Form G                          :      0.250u      0.000s      0.049w    208 calls
JK: D                               :      0.000u      0.000s      0.001w    208 calls
JK: USO2AO                          :      0.000u      0.000s      0.000w    208 calls
JK: JK                              :      0.233u      0.000s      0.045w    208 calls
DFH: compute_JK()                   :      0.233u      0.000s      0.045w    208 calls
DFH: Grabbing AOs                   :      0.000u      0.000s      0.000w    208 calls
DFH: compute_J                      :      0.000u      0.000s      0.006w    208 calls
DFH: compute_K                      :      0.183u      0.000s      0.035w    208 calls
JK: AO2USO                          :      0.000u      0.000s      0.000w    208 calls
HF: Form F                          :      0.000u      0.000s      0.001w    208 calls
HF: Form D                          :      0.000u      0.000s      0.001w    208 calls
HF: DIIS                            :      0.250u      0.000s      0.102w    187 calls
DIISManager::add_entry              :      0.017u      0.000s      0.010w    184 calls
DIISManager::extrapolate            :      0.017u      0.000s      0.008w    184 calls
bMatrix setup                       :      0.000u      0.000s      0.003w    184 calls
bMatrix pseudoinverse               :      0.017u      0.000s      0.002w    184 calls
New vector                          :      0.000u      0.000s      0.002w    184 calls
HF: Form C                          :      0.050u      0.000s      0.044w    187 calls
Grad: V T Perturb                   :      1.583u      0.017s      0.473w     24 calls
Grad: S                             :      0.000u      0.000s      0.003w     24 calls
Grad: JK                            :      2.000u      0.117s      0.641w     24 calls
JKGrad: Amn                         :      0.567u      0.000s      0.172w     24 calls
JKGrad: Awmn                        :      0.000u      0.000s      0.000w     24 calls
JKGrad: AB                          :      0.300u      0.000s      0.101w     24 calls
JKGrad: UV                          :      0.000u      0.000s      0.003w     24 calls
JKGrad: ABx                         :      0.183u      0.000s      0.037w     24 calls
JKGrad: Amnx                        :      0.917u      0.000s      0.301w     24 calls
Grad: XC                            :      0.000u      0.000s      0.000w     24 calls

--------------------------------------------------------------------------------------
DFH: sparsity prep                  :      0.267u      0.000s      0.101w     24 calls
| Libint2ERI::Libint2ERI            :      0.167u      0.000s      0.070w     24 calls
DFH: initialize()                   :      0.933u      0.050s      0.310w     24 calls
| Libint2ERI::Libint2ERI            :      0.133u      0.000s      0.042w     72 calls
| DFH: AO Construction              :      0.167u      0.000s      0.072w     24 calls
| DFH: AO-Met. Contraction          :      0.133u      0.000s      0.025w     24 calls
HF: Form core H                     :      0.067u      0.017s      0.031w     24 calls
HF: Form S/X                        :      0.017u      0.000s      0.005w     24 calls
HF: Guess                           :      0.833u      0.050s      0.252w     24 calls
| SAD Guess                         :      0.783u      0.050s      0.240w     21 calls
HF: Form G                          :      0.250u      0.000s      0.049w    208 calls
| JK: D                             :      0.000u      0.000s      0.001w    208 calls
| JK: USO2AO                        :      0.000u      0.000s      0.000w    208 calls
| JK: JK                            :      0.233u      0.000s      0.045w    208 calls
| | DFH: compute_JK()               :      0.233u      0.000s      0.045w    208 calls
| | | DFH: Grabbing AOs             :      0.000u      0.000s      0.000w    208 calls
| | | DFH: compute_J                :      0.000u      0.000s      0.006w    208 calls
| | | DFH: compute_K                :      0.183u      0.000s      0.035w    208 calls
| JK: AO2USO                        :      0.000u      0.000s      0.000w    208 calls
HF: Form F                          :      0.000u      0.000s      0.001w    208 calls
HF: Form D                          :      0.000u      0.000s      0.001w    208 calls
HF: DIIS                            :      0.250u      0.000s      0.102w    187 calls
| DIISManager::add_entry            :      0.017u      0.000s      0.010w    184 calls
| DIISManager::extrapolate          :      0.017u      0.000s      0.008w    184 calls
| | bMatrix setup                   :      0.000u      0.000s      0.003w    184 calls
| | bMatrix pseudoinverse           :      0.017u      0.000s      0.002w    184 calls
| | New vector                      :      0.000u      0.000s      0.002w    184 calls
HF: Form C                          :      0.050u      0.000s      0.044w    187 calls
Grad: V T Perturb                   :      1.583u      0.017s      0.473w     24 calls
Grad: S                             :      0.000u      0.000s      0.003w     24 calls
Grad: JK                            :      2.000u      0.117s      0.641w     24 calls
| JKGrad: Amn                       :      0.567u      0.000s      0.172w     24 calls
| | Libint2ERI::Libint2ERI          :      0.300u      0.000s      0.085w     48 calls
[...]
DIISManager::add_entry              :      0.017u      0.000s      0.012w    184 calls
DIISManager::extrapolate            :      0.017u      0.000s      0.008w    184 calls
bMatrix setup                       :      0.000u      0.000s      0.004w    184 calls
bMatrix pseudoinverse               :      0.000u      0.000s      0.002w    184 calls
New vector                          :      0.017u      0.000s      0.002w    184 calls
HF: Form C                          :      0.200u      0.000s      0.043w    187 calls
Grad: V T Perturb                   :      1.550u      0.033s      0.468w     24 calls
Grad: S                             :      0.000u      0.000s      0.003w     24 calls
Grad: JK                            :      1.983u      0.117s      0.641w     24 calls
JKGrad: Amn                         :      0.550u      0.017s      0.174w     24 calls
JKGrad: Awmn                        :      0.000u      0.000s      0.000w     24 calls
JKGrad: AB                          :      0.350u      0.017s      0.101w     24 calls
JKGrad: UV                          :      0.000u      0.017s      0.003w     24 calls
JKGrad: ABx                         :      0.133u      0.000s      0.037w     24 calls
JKGrad: Amnx                        :      0.933u      0.000s      0.299w     24 calls
Grad: XC                            :      0.000u      0.000s      0.000w     24 calls

--------------------------------------------------------------------------------------
DFH: sparsity prep                  :      0.250u      0.000s      0.092w     24 calls
| Libint2ERI::Libint2ERI            :      0.183u      0.000s      0.064w     24 calls
DFH: initialize()                   :      0.867u      0.083s      0.301w     24 calls
| Libint2ERI::Libint2ERI            :      0.133u      0.017s      0.042w     72 calls
| DFH: AO Construction              :      0.250u      0.000s      0.071w     24 calls
| DFH: AO-Met. Contraction          :      0.067u      0.000s      0.025w     24 calls
HF: Form core H                     :      0.117u      0.017s      0.030w     24 calls
HF: Form S/X                        :      0.000u      0.000s      0.005w     24 calls
HF: Guess                           :      0.800u      0.033s      0.253w     24 calls
| SAD Guess                         :      0.783u      0.033s      0.242w     21 calls
HF: Form G                          :      0.117u      0.000s      0.048w    208 calls
| JK: D                             :      0.000u      0.000s      0.001w    208 calls
| JK: USO2AO                        :      0.000u      0.000s      0.000w    208 calls
| JK: JK                            :      0.117u      0.000s      0.045w    208 calls
| | DFH: compute_JK()               :      0.117u      0.000s      0.044w    208 calls
| | | DFH: Grabbing AOs             :      0.000u      0.000s      0.000w    208 calls
| | | DFH: compute_J                :      0.017u      0.000s      0.006w    208 calls
| | | DFH: compute_K                :      0.100u      0.000s      0.035w    208 calls
| JK: AO2USO                        :      0.000u      0.000s      0.000w    208 calls
HF: Form F                          :      0.017u      0.000s      0.001w    208 calls
HF: Form D                          :      0.000u      0.000s      0.001w    208 calls
HF: DIIS                            :      0.300u      0.000s      0.105w    187 calls
| DIISManager::add_entry            :      0.017u      0.000s      0.012w    184 calls
| DIISManager::extrapolate          :      0.017u      0.000s      0.008w    184 calls
| | bMatrix setup                   :      0.000u      0.000s      0.004w    184 calls
| | bMatrix pseudoinverse           :      0.000u      0.000s      0.002w    184 calls
| | New vector                      :      0.017u      0.000s      0.002w    184 calls
HF: Form C                          :      0.200u      0.000s      0.043w    187 calls
Grad: V T Perturb                   :      1.550u      0.033s      0.468w     24 calls
Grad: S                             :      0.000u      0.000s      0.003w     24 calls
Grad: JK                            :      1.983u      0.117s      0.641w     24 calls
| JKGrad: Amn                       :      0.550u      0.017s      0.174w     24 calls
| | Libint2ERI::Libint2ERI          :      0.283u      0.017s      0.084w     48 calls
| JKGrad: Awmn                      :      0.000u      0.000s      0.000w     24 calls
| JKGrad: AB                        :      0.350u      0.017s      0.101w     24 calls
| | Libint2ERI::Libint2ERI          :      0.017u      0.000s      0.001w     48 calls
| JKGrad: UV                        :      0.000u      0.017s      0.003w     24 calls
| JKGrad: ABx                       :      0.133u      0.000s      0.037w     24 calls
| | Libint2ERI::Libint2ERI          :      0.000u      0.000s      0.001w     48 calls
| JKGrad: Amnx                      :      0.933u      0.000s      0.299w     24 calls
| | Libint2ERI::Libint2ERI          :      0.300u      0.000s      0.087w     48 calls
Grad: XC                            :      0.000u      0.000s      0.000w     24 calls

**************************************************************************************

Host: Charlies-MacBook-Air-2.local

Timers On : Wed Jul 20 14:58:28 2022
Timers Off: Wed Jul 20 14:58:35 2022

Wall Time:        6.78 seconds

                                                       Time (seconds)
Module                                       User      System        Wall        Calls
DFH: sparsity prep                  :      0.233u      0.000s      0.081w     24 calls
Libint2ERI::Libint2ERI              :      0.817u      0.000s      0.264w    288 calls
DFH: initialize()                   :      0.850u      0.033s      0.284w     24 calls
DFH: AO Construction                :      0.200u      0.000s      0.068w     24 calls
DFH: AO-Met. Contraction            :      0.083u      0.000s      0.025w     24 calls
HF: Form core H                     :      0.100u      0.017s      0.029w     24 calls
HF: Form S/X                        :      0.000u      0.000s      0.004w     24 calls
HF: Guess                           :      0.783u      0.050s      0.251w     24 calls
SAD Guess                           :      0.783u      0.050s      0.240w     21 calls
HF: Form G                          :      0.250u      0.000s      0.047w    208 calls
JK: D                               :      0.000u      0.000s      0.001w    208 calls
JK: USO2AO                          :      0.000u      0.000s      0.000w    208 calls
JK: JK                              :      0.200u      0.000s      0.044w    208 calls
DFH: compute_JK()                   :      0.200u      0.000s      0.043w    208 calls
DFH: Grabbing AOs                   :      0.000u      0.000s      0.000w    208 calls
DFH: compute_J                      :      0.033u      0.000s      0.006w    208 calls
DFH: compute_K                      :      0.167u      0.000s      0.034w    208 calls
JK: AO2USO                          :      0.000u      0.000s      0.000w    208 calls
HF: Form F                          :      0.000u      0.000s      0.001w    208 calls
HF: Form D                          :      0.017u      0.000s      0.001w    208 calls
HF: DIIS                            :      0.233u      0.033s      0.101w    187 calls
DIISManager::add_entry              :      0.033u      0.017s      0.010w    184 calls
DIISManager::extrapolate            :      0.033u      0.000s      0.008w    184 calls
bMatrix setup                       :      0.000u      0.000s      0.003w    184 calls
bMatrix pseudoinverse               :      0.017u      0.000s      0.002w    184 calls
New vector                          :      0.000u      0.000s      0.002w    184 calls
HF: Form C                          :      0.133u      0.000s      0.043w    187 calls
Grad: V T Perturb                   :      1.567u      0.017s      0.472w     24 calls
Grad: S                             :      0.017u      0.000s      0.003w     24 calls
Grad: JK                            :      1.983u      0.083s      0.625w     24 calls
JKGrad: Amn                         :      0.567u      0.000s      0.172w     24 calls
JKGrad: Awmn                        :      0.000u      0.000s      0.000w     24 calls
JKGrad: AB                          :      0.317u      0.033s      0.101w     24 calls
JKGrad: UV                          :      0.017u      0.000s      0.003w     24 calls
JKGrad: ABx                         :      0.167u      0.000s      0.037w     24 calls
JKGrad: Amnx                        :      0.883u      0.000s      0.284w     24 calls
Grad: XC                            :      0.000u      0.000s      0.000w     24 calls

--------------------------------------------------------------------------------------
DFH: sparsity prep                  :      0.233u      0.000s      0.081w     24 calls
| Libint2ERI::Libint2ERI            :      0.117u      0.000s      0.054w     24 calls
DFH: initialize()                   :      0.850u      0.033s      0.284w     24 calls
| Libint2ERI::Libint2ERI            :      0.117u      0.000s      0.041w     72 calls
| DFH: AO Construction              :      0.200u      0.000s      0.068w     24 calls
| DFH: AO-Met. Contraction          :      0.083u      0.000s      0.025w     24 calls
HF: Form core H                     :      0.100u      0.017s      0.029w     24 calls
HF: Form S/X                        :      0.000u      0.000s      0.004w     24 calls
HF: Guess                           :      0.783u      0.050s      0.251w     24 calls
| SAD Guess                         :      0.783u      0.050s      0.240w     21 calls
HF: Form G                          :      0.250u      0.000s      0.047w    208 calls
| JK: D                             :      0.000u      0.000s      0.001w    208 calls
| JK: USO2AO                        :      0.000u      0.000s      0.000w    208 calls
| JK: JK                            :      0.200u      0.000s      0.044w    208 calls
| | DFH: compute_JK()               :      0.200u      0.000s      0.043w    208 calls
| | | DFH: Grabbing AOs             :      0.000u      0.000s      0.000w    208 calls
| | | DFH: compute_J                :      0.033u      0.000s      0.006w    208 calls
| | | DFH: compute_K                :      0.167u      0.000s      0.034w    208 calls
| JK: AO2USO                        :      0.000u      0.000s      0.000w    208 calls
HF: Form F                          :      0.000u      0.000s      0.001w    208 calls
HF: Form D                          :      0.017u      0.000s      0.001w    208 calls
HF: DIIS                            :      0.233u      0.033s      0.101w    187 calls
| DIISManager::add_entry            :      0.033u      0.017s      0.010w    184 calls
| DIISManager::extrapolate          :      0.033u      0.000s      0.008w    184 calls
| | bMatrix setup                   :      0.000u      0.000s      0.003w    184 calls
| | bMatrix pseudoinverse           :      0.017u      0.000s      0.002w    184 calls
| | New vector                      :      0.000u      0.000s      0.002w    184 calls
HF: Form C                          :      0.133u      0.000s      0.043w    187 calls
Grad: V T Perturb                   :      1.567u      0.017s      0.472w     24 calls
Grad: S                             :      0.017u      0.000s      0.003w     24 calls
Grad: JK                            :      1.983u      0.083s      0.625w     24 calls
| JKGrad: Amn                       :      0.567u      0.000s      0.172w     24 calls
| | Libint2ERI::Libint2ERI          :      0.317u      0.000s      0.084w     48 calls
| JKGrad: Awmn                      :      0.000u      0.000s      0.000w     24 calls
| JKGrad: AB                        :      0.317u      0.033s      0.101w     24 calls
| | Libint2ERI::Libint2ERI          :      0.017u      0.000s      0.001w     48 calls
| JKGrad: UV                        :      0.017u      0.000s      0.003w     24 calls
| JKGrad: ABx                       :      0.167u      0.000s      0.037w     24 calls
| | Libint2ERI::Libint2ERI          :      0.000u      0.000s      0.001w     48 calls
| JKGrad: Amnx                      :      0.883u      0.000s      0.284w     24 calls
| | Libint2ERI::Libint2ERI          :      0.250u      0.000s      0.083w     48 calls
Grad: XC                            :      0.000u      0.000s      0.000w     24 calls

**************************************************************************************

Host: Charlies-MacBook-Air-2.local

Timers On : Wed Jul 20 15:04:52 2022
Timers Off: Wed Jul 20 15:04:59 2022

Wall Time:        7.05 seconds

                                                       Time (seconds)
Module                                       User      System        Wall        Calls
DFH: sparsity prep                  :      0.200u      0.000s      0.081w     24 calls
Libint2ERI::Libint2ERI              :      0.783u      0.033s      0.280w    288 calls
DFH: initialize()                   :      0.833u      0.100s      0.300w     24 calls
DFH: AO Construction                :      0.167u      0.000s      0.069w     24 calls
DFH: AO-Met. Contraction            :      0.133u      0.000s      0.026w     24 calls
HF: Form core H                     :      0.133u      0.000s      0.030w     24 calls
HF: Form S/X                        :      0.000u      0.000s      0.004w     24 calls
HF: Guess                           :      0.783u      0.050s      0.249w     24 calls
SAD Guess                           :      0.733u      0.050s      0.238w     21 calls
HF: Form G                          :      0.083u      0.000s      0.048w    208 calls
JK: D                               :      0.000u      0.000s      0.001w    208 calls
JK: USO2AO                          :      0.000u      0.000s      0.000w    208 calls
JK: JK                              :      0.083u      0.000s      0.044w    208 calls
DFH: compute_JK()                   :      0.083u      0.000s      0.044w    208 calls
DFH: Grabbing AOs                   :      0.000u      0.000s      0.000w    208 calls
DFH: compute_J                      :      0.017u      0.000s      0.006w    208 calls
DFH: compute_K                      :      0.067u      0.000s      0.034w    208 calls
JK: AO2USO                          :      0.000u      0.000s      0.000w    208 calls
HF: Form F                          :      0.000u      0.000s      0.001w    208 calls
HF: Form D                          :      0.000u      0.000s      0.001w    208 calls
HF: DIIS                            :      0.433u      0.017s      0.104w    187 calls
DIISManager::add_entry              :      0.067u      0.000s      0.010w    184 calls
DIISManager::extrapolate            :      0.017u      0.000s      0.008w    184 calls
bMatrix setup                       :      0.000u      0.000s      0.003w    184 calls
bMatrix pseudoinverse               :      0.017u      0.000s      0.002w    184 calls
New vector                          :      0.000u      0.000s      0.002w    184 calls
HF: Form C                          :      0.100u      0.000s      0.046w    187 calls
Grad: V T Perturb                   :      1.433u      0.100s      0.489w     24 calls
Grad: S                             :      0.000u      0.000s      0.003w     24 calls
Grad: JK                            :      2.000u      0.117s      0.673w     24 calls
JKGrad: Amn                         :      0.550u      0.000s      0.177w     24 calls
JKGrad: Awmn                        :      0.000u      0.000s      0.000w     24 calls
JKGrad: AB                          :      0.367u      0.050s      0.124w     24 calls
JKGrad: UV                          :      0.000u      0.000s      0.004w     24 calls
JKGrad: ABx                         :      0.067u      0.000s      0.038w     24 calls
JKGrad: Amnx                        :      0.950u      0.033s      0.304w     24 calls
Grad: XC                            :      0.000u      0.000s      0.000w     24 calls

--------------------------------------------------------------------------------------
DFH: sparsity prep                  :      0.200u      0.000s      0.081w     24 calls
| Libint2ERI::Libint2ERI            :      0.100u      0.000s      0.052w     24 calls
DFH: initialize()                   :      0.833u      0.100s      0.300w     24 calls
| Libint2ERI::Libint2ERI            :      0.150u      0.000s      0.044w     72 calls
| DFH: AO Construction              :      0.167u      0.000s      0.069w     24 calls
| DFH: AO-Met. Contraction          :      0.133u      0.000s      0.026w     24 calls
HF: Form core H                     :      0.133u      0.000s      0.030w     24 calls
HF: Form S/X                        :      0.000u      0.000s      0.004w     24 calls
HF: Guess                           :      0.783u      0.050s      0.249w     24 calls
| SAD Guess                         :      0.733u      0.050s      0.238w     21 calls
HF: Form G                          :      0.083u      0.000s      0.048w    208 calls
| JK: D                             :      0.000u      0.000s      0.001w    208 calls
| JK: USO2AO                        :      0.000u      0.000s      0.000w    208 calls
| JK: JK                            :      0.083u      0.000s      0.044w    208 calls
| | DFH: compute_JK()               :      0.083u      0.000s      0.044w    208 calls
| | | DFH: Grabbing AOs             :      0.000u      0.000s      0.000w    208 calls
| | | DFH: compute_J                :      0.017u      0.000s      0.006w    208 calls
| | | DFH: compute_K                :      0.067u      0.000s      0.034w    208 calls
| JK: AO2USO                        :      0.000u      0.000s      0.000w    208 calls
HF: Form F                          :      0.000u      0.000s      0.001w    208 calls
HF: Form D                          :      0.000u      0.000s      0.001w    208 calls
HF: DIIS                            :      0.433u      0.017s      0.104w    187 calls
| DIISManager::add_entry            :      0.067u      0.000s      0.010w    184 calls
| DIISManager::extrapolate          :      0.017u      0.000s      0.008w    184 calls
| | bMatrix setup                   :      0.000u      0.000s      0.003w    184 calls
| | bMatrix pseudoinverse           :      0.017u      0.000s      0.002w    184 calls
| | New vector                      :      0.000u      0.000s      0.002w    184 calls
HF: Form C                          :      0.100u      0.000s      0.046w    187 calls
Grad: V T Perturb                   :      1.433u      0.100s      0.489w     24 calls
Grad: S                             :      0.000u      0.000s      0.003w     24 calls
Grad: JK                            :      2.000u      0.117s      0.673w     24 calls
| JKGrad: Amn                       :      0.550u      0.000s      0.177w     24 calls
| | Libint2ERI::Libint2ERI          :      0.233u      0.000s      0.088w     48 calls
| JKGrad: Awmn                      :      0.000u      0.000s      0.000w     24 calls
| JKGrad: AB                        :      0.367u      0.050s      0.124w     24 calls
| | Libint2ERI::Libint2ERI          :      0.000u      0.000s      0.001w     48 calls
| JKGrad: UV                        :      0.000u      0.000s      0.004w     24 calls
| JKGrad: ABx                       :      0.067u      0.000s      0.038w     24 calls
| | Libint2ERI::Libint2ERI          :      0.000u      0.000s      0.001w     48 calls
| JKGrad: Amnx                      :      0.950u      0.033s      0.304w     24 calls
| | Libint2ERI::Libint2ERI          :      0.300u      0.033s      0.094w     48 calls
Grad: XC                            :      0.000u      0.000s      0.000w     24 calls

**************************************************************************************
